 Entering Gaussian System, Link 0=g16
 Initial command:
 /home/gridsan/nmorgan/RMG_shared/Software/gaussian_16_c02/g16/l1.exe "/tmp/24487558/Gau-315325.inp" -scrdir="/tmp/24487558/"
 Entering Link 1 = /home/gridsan/nmorgan/RMG_shared/Software/gaussian_16_c02/g16/l1.exe PID=    315327.
  
 Copyright (c) 1988-2021, Gaussian, Inc.  All Rights Reserved.
  
 This is part of the Gaussian(R) 16 program.  It is based on
 the Gaussian(R) 09 system (copyright 2009, Gaussian, Inc.),
 the Gaussian(R) 03 system (copyright 2003, Gaussian, Inc.),
 the Gaussian(R) 98 system (copyright 1998, Gaussian, Inc.),
 the Gaussian(R) 94 system (copyright 1995, Gaussian, Inc.),
 the Gaussian 92(TM) system (copyright 1992, Gaussian, Inc.),
 the Gaussian 90(TM) system (copyright 1990, Gaussian, Inc.),
 the Gaussian 88(TM) system (copyright 1988, Gaussian, Inc.),
 the Gaussian 86(TM) system (copyright 1986, Carnegie Mellon
 University), and the Gaussian 82(TM) system (copyright 1983,
 Carnegie Mellon University). Gaussian is a federally registered
 trademark of Gaussian, Inc.
  
 This software contains proprietary and confidential information,
 including trade secrets, belonging to Gaussian, Inc.
  
 This software is provided under written license and may be
 used, copied, transmitted, or stored only in accord with that
 written license.
  
 The following legend is applicable only to US Government
 contracts under FAR:
  
                    RESTRICTED RIGHTS LEGEND
  
 Use, reproduction and disclosure by the US Government is
 subject to restrictions as set forth in subparagraphs (a)
 and (c) of the Commercial Computer Software - Restricted
 Rights clause in FAR 52.227-19.
  
 Gaussian, Inc.
 340 Quinnipiac St., Bldg. 40, Wallingford CT 06492
  
  
 ---------------------------------------------------------------
 Warning -- This program may not be used in any manner that
 competes with the business of Gaussian, Inc. or will provide
 assistance to any competitor of Gaussian, Inc.  The licensee
 of this program is prohibited from giving any competitor of
 Gaussian, Inc. access to this program.  By using this program,
 the user acknowledges that Gaussian, Inc. is engaged in the
 business of creating and licensing software in the field of
 computational chemistry and represents and warrants to the
 licensee that it is not a competitor of Gaussian, Inc. and that
 it will not use this program in any manner prohibited above.
 ---------------------------------------------------------------
  

 Cite this work as:
 Gaussian 16, Revision C.02,
 M. J. Frisch, G. W. Trucks, H. B. Schlegel, G. E. Scuseria, 
 M. A. Robb, J. R. Cheeseman, G. Scalmani, V. Barone, 
 G. A. Petersson, H. Nakatsuji, X. Li, M. Caricato, A. V. Marenich, 
 J. Bloino, B. G. Janesko, R. Gomperts, B. Mennucci, H. P. Hratchian, 
 J. V. Ortiz, A. F. Izmaylov, J. L. Sonnenberg, D. Williams-Young, 
 F. Ding, F. Lipparini, F. Egidi, J. Goings, B. Peng, A. Petrone, 
 T. Henderson, D. Ranasinghe, V. G. Zakrzewski, J. Gao, N. Rega, 
 G. Zheng, W. Liang, M. Hada, M. Ehara, K. Toyota, R. Fukuda, 
 J. Hasegawa, M. Ishida, T. Nakajima, Y. Honda, O. Kitao, H. Nakai, 
 T. Vreven, K. Throssell, J. A. Montgomery, Jr., J. E. Peralta, 
 F. Ogliaro, M. J. Bearpark, J. J. Heyd, E. N. Brothers, K. N. Kudin, 
 V. N. Staroverov, T. A. Keith, R. Kobayashi, J. Normand, 
 K. Raghavachari, A. P. Rendell, J. C. Burant, S. S. Iyengar, 
 J. Tomasi, M. Cossi, J. M. Millam, M. Klene, C. Adamo, R. Cammi, 
 J. W. Ochterski, R. L. Martin, K. Morokuma, O. Farkas, 
 J. B. Foresman, and D. J. Fox, Gaussian, Inc., Wallingford CT, 2019.
 
 ******************************************
 Gaussian 16:  ES64L-G16RevC.02  7-Dec-2021
                14-Dec-2023 
 ******************************************
 %nprocshared=8
 Will use up to    8 processors via shared memory.
 %mem=40GB
 ------------------------------------
 # wB97XD/Def2TZVP irc=calcfc scf=xqc
 ------------------------------------
 1/10=4,18=10,26=3,38=1,44=3,172=1/1,23;
 2/12=2,17=6,18=5,29=1,40=1/2;
 3/5=44,7=101,11=2,25=1,30=1,71=2,74=-58,140=1/1,2,3;
 4//1;
 5/5=2,8=3,13=1,38=5/2,8;
 8/6=4,10=90,11=11/1;
 11/6=1,8=1,9=11,15=111,16=1/1,2,10;
 10/6=1,13=1/2;
 6/7=2,8=2,9=2,10=2,28=1/1;
 7/10=1,25=1/1,2,3,16;
 1/10=4,18=10,26=3,44=3/23(2);
 2/29=1/2;
 99/5=20/99;
 2/29=1/2;
 3/5=44,7=101,11=2,25=1,30=1,71=2,74=-58,140=1/1,2,3;
 4/5=5,16=3,69=1/1;
 5/5=2,8=3,13=1,38=5/2,8;
 8/6=4,10=90,11=11/1;
 11/6=1,8=1,9=11,15=111,16=1/1,2,10;
 10/6=1,13=1/2;
 7/10=1,25=1/1,2,3,16;
 1/18=10,26=3,44=3/23(-8);
 2/29=1/2;
 6/7=2,8=2,9=2,10=2,19=2,28=1/1;
 99/5=20,9=1/99;
 -----
 Title
 -----
 Symbolic Z-matrix:
 Charge =  0 Multiplicity = 2
 C                    -2.60546   1.4       0.64069 
 C                    -1.84563   0.13455   0.27997 
 O                    -2.61874  -0.7134   -0.55754 
 C                    -0.55806   0.44454  -0.46429 
 C                     0.22916  -0.81486  -0.88756 
 C                     0.69171  -1.64145   0.23446 
 O                     1.72907  -1.31416   0.97038 
 H                    -3.52617   1.16235   1.17921 
 H                    -2.86872   1.95377  -0.26256 
 H                    -2.00238   2.04452   1.28268 
 H                    -1.59194  -0.40321   1.2053 
 H                    -3.45673  -0.89061  -0.12842 
 H                    -0.79665   1.01525  -1.36541 
 H                     0.06268   1.08463   0.16508 
 H                     1.10595  -0.475    -1.46256 
 H                    -0.40746  -1.41938  -1.53291 
 H                     0.18688  -2.54248   0.55713 
 H                     2.02849  -0.3864    0.81798 
 O                     2.59982   1.16968   0.44752 
 O                     2.76432   1.07286  -0.76975 
 
 IRC-IRC-IRC-IRC-IRC-IRC-IRC-IRC-IRC-IRC-IRC-IRC-IRC-IRC-IRC-IRC-IRC-IRC
 ------------------------------------------------------------------------
 INPUT DATA FOR L123
 ------------------------------------------------------------------------
 GENERAL PARAMETERS:
 Follow reaction path in both directions.
 Maximum points per path      =  10
 Step size                    =   0.100 bohr
 Integration scheme           = HPC                                 
    Redo corrector integration= Yes                                 
    DWI Weight Power          =  2
    DWI will use Hessian update vectors when possible.
    Max correction cycles     =  20
 Initial Hessian              = CalcFC
 Hessian evaluation           = All updating
 Hessian updating method      = Bofill                              
 ------------------------------------------------------------------------
 IRC-IRC-IRC-IRC-IRC-IRC-IRC-IRC-IRC-IRC-IRC-IRC-IRC-IRC-IRC-IRC-IRC-IRC
                          Input orientation:                          
 ---------------------------------------------------------------------
 Center     Atomic      Atomic             Coordinates (Angstroms)
 Number     Number       Type             X           Y           Z
 ---------------------------------------------------------------------
      1          6           0       -2.605460    1.400000    0.640690
      2          6           0       -1.845630    0.134550    0.279970
      3          8           0       -2.618740   -0.713400   -0.557540
      4          6           0       -0.558060    0.444540   -0.464290
      5          6           0        0.229160   -0.814860   -0.887560
      6          6           0        0.691710   -1.641450    0.234460
      7          8           0        1.729070   -1.314160    0.970380
      8          1           0       -3.526170    1.162350    1.179210
      9          1           0       -2.868720    1.953770   -0.262560
     10          1           0       -2.002380    2.044520    1.282680
     11          1           0       -1.591940   -0.403210    1.205300
     12          1           0       -3.456730   -0.890610   -0.128420
     13          1           0       -0.796650    1.015250   -1.365410
     14          1           0        0.062680    1.084630    0.165080
     15          1           0        1.105950   -0.475000   -1.462560
     16          1           0       -0.407460   -1.419380   -1.532910
     17          1           0        0.186880   -2.542480    0.557130
     18          1           0        2.028490   -0.386400    0.817980
     19          8           0        2.599820    1.169680    0.447520
     20          8           0        2.764320    1.072860   -0.769750
 ---------------------------------------------------------------------
                    Distance matrix (angstroms):
                    1          2          3          4          5
     1  C    0.000000
     2  C    1.519482   0.000000
     3  O    2.429484   1.420613   0.000000
     4  C    2.515101   1.519162   2.365570   0.000000
     5  C    3.908481   2.563057   2.868753   1.544332   0.000000
     6  C    4.504084   3.097473   3.528118   2.530125   1.468377
     7  O    5.124794   3.918406   4.647462   3.222153   2.439461
     8  H    1.092789   2.165461   2.712594   3.467855   4.720530
     9  H    1.091709   2.156528   2.695051   2.767240   4.201523
    10  H    1.091450   2.162865   3.372304   2.774509   4.226792
    11  H    2.144195   1.099900   2.063526   2.138953   2.804625
    12  H    2.561852   1.952787   0.958006   3.209006   3.764016
    13  H    2.728418   2.140857   2.638351   1.093002   2.151727
    14  H    2.728486   2.134830   3.308339   1.091394   2.178033
    15  H    4.659812   3.481348   3.840470   2.147330   1.102221
    16  H    4.183855   2.787394   2.517839   2.153794   1.089590
    17  H    4.831904   3.372596   3.529805   3.243536   2.252463
    18  H    4.969522   3.945840   4.857544   3.004150   2.515956
    19  O    5.213953   4.567449   5.638218   3.365922   3.367620
    20  O    5.561555   4.820164   5.675658   3.395041   3.162974
                    6          7          8          9         10
     6  C    0.000000
     7  O    1.313321   0.000000
     8  H    5.152122   5.813283   0.000000
     9  H    5.084220   5.774009   1.771239   0.000000
    10  H    4.684363   5.030108   1.763765   1.773851   0.000000
    11  H    2.773234   3.451684   2.488555   3.056163   2.483109
    12  H    4.231430   5.317826   2.435028   2.907619   3.566697
    13  H    3.439892   4.154675   3.734569   2.527958   3.086351
    14  H    2.798572   3.029778   3.730194   3.087294   2.536709
    15  H    2.100495   2.647955   5.578208   4.810086   4.852426
    16  H    2.093105   3.292764   4.873118   4.364600   4.740245
    17  H    1.082046   2.014422   5.281997   5.497713   5.134185
    18  H    1.924221   0.986720   5.777834   5.534133   4.730035
    19  O    3.404222   2.683477   6.169536   5.569914   4.758475
    20  O    3.559723   3.130121   6.586100   5.724018   5.279964
                   11         12         13         14         15
    11  H    0.000000
    12  H    2.343888   0.000000
    13  H    3.041885   3.498353   0.000000
    14  H    2.456317   4.046475   1.756605   0.000000
    15  H    3.794897   4.771867   2.418712   2.483963   0.000000
    16  H    3.151728   3.398564   2.471224   3.061743   1.785277
    17  H    2.856712   4.058885   4.161843   3.650350   3.032872
    18  H    3.641128   5.589055   3.835783   2.540594   2.461665
    19  O    4.540822   6.423262   3.853125   2.554229   2.930021
    20  O    5.005657   6.554997   3.610905   2.858829   2.371929
                   16         17         18         19         20
    16  H    0.000000
    17  H    2.445989   0.000000
    18  H    3.539433   2.847499   0.000000
    19  O    4.434982   4.428818   1.698542   0.000000
    20  O    4.105346   4.634058   2.278546   1.232145   0.000000
 Symmetry turned off by external request.
 Stoichiometry    C5H11O4(2)
 Framework group  C1[X(C5H11O4)]
 Deg. of freedom    54
 Full point group                 C1      NOp   1
 Rotational constants (GHZ):           2.2275424           0.8039475           0.6930522
 Standard basis: def2TZVP (5D, 7F)
   345 basis functions,   547 primitive gaussians,   390 cartesian basis functions
    37 alpha electrons       36 beta electrons
       nuclear repulsion energy       474.1569105107 Hartrees.
 NAtoms=   20 NActive=   20 NUniq=   20 SFac= 1.00D+00 NAtFMM=   60 NAOKFM=F Big=F
 Integral buffers will be    131072 words long.
 Raffenetti 2 integral format.
 Two-electron integral symmetry is turned off.
 Nuclear repulsion after empirical dispersion term =      474.1445277100 Hartrees.
 One-electron integrals computed using PRISM.
   1 Symmetry operations used in ECPInt.
 ECPInt:  NShTT=   10296 NPrTT=   30612 LenC2=    9825 LenP2D=   22618.
 LDataN:  DoStor=T MaxTD1= 6 Len=  172
 NBasis=   345 RedAO= T EigKep=  1.50D-04  NBF=   345
 NBsUse=   345 1.00D-06 EigRej= -1.00D+00 NBFU=   345
 ExpMin= 9.52D-02 ExpMax= 2.70D+04 ExpMxC= 9.22D+02 IAcc=3 IRadAn=         5 AccDes= 0.00D+00
 Harris functional with IExCor= 4639 and IRadAn=       5 diagonalized for initial guess.
 HarFok:  IExCor= 4639 AccDes= 0.00D+00 IRadAn=         5 IDoV= 1 UseB2=F ITyADJ=14
 ICtDFT=  3500011 ScaDFX=  1.000000  1.000000  1.000000  1.000000
 FoFCou: FMM=F IPFlag=           0 FMFlag=      100000 FMFlg1=           0
         NFxFlg=           0 DoJE=T BraDBF=F KetDBF=T FulRan=T
         wScrn=  0.000000 ICntrl=       500 IOpCl=  0 I1Cent=   200000004 NGrid=           0
         NMat0=    1 NMatS0=      1 NMatT0=    0 NMatD0=    1 NMtDS0=    0 NMtDT0=    0
 Symmetry not used in FoFCou.
 Initial guess <Sx>= 0.0000 <Sy>= 0.0000 <Sz>= 0.5000 <S**2>= 0.7500 S= 0.5000
 Requested convergence on RMS density matrix=1.00D-08 within  32 cycles.
 Requested convergence on MAX density matrix=1.00D-06.
 Requested convergence on             energy=1.00D-06.
 No special actions if energy rises.
 Integral accuracy reduced to 1.0D-05 until final iterations.
 Failed to achieve initial convergence to 1.0D-08 in 10 cycles.
 Switch to full accuracy anyway.
 Restarting incremental Fock formation.
 >>>>>>>>>> Convergence criterion not met.
 SCF Done:  E(UwB97XD) =  -497.907735578     A.U. after   33 cycles
            NFock= 32  Conv=0.62D-07     -V/T= 2.0042
 <Sx>= 0.0000 <Sy>= 0.0000 <Sz>= 0.5000 <S**2>= 1.4113 S= 0.7889
 <L.S>=  0.00000000000    
 Annihilation of the first spin contaminant:
 S**2 before annihilation     1.4113,   after     0.7692
 SCF Done:  E(UwB97XD) =  -497.907735578     a.u. after    1 cycles
            Convg  =    0.4523D-06                     1 Fock formations.
              S**2 =  1.4113                  -V/T =  2.0042
 <Sx>= 0.0000 <Sy>= 0.0000 <Sz>= 0.5000 <S**2>= 1.4113 S= 0.7889
 <L.S>=  0.00000000000    
 Annihilation of the first spin contaminant:
 S**2 before annihilation     1.4113,   after     0.7692
 DoSCS=F DFT=T ScalE2(SS,OS)=  1.000000  1.000000
 Range of M.O.s used for correlation:     1   345
 NBasis=   345 NAE=    37 NBE=    36 NFC=     0 NFV=     0
 NROrb=    345 NOA=    37 NOB=    36 NVA=   308 NVB=   309

 **** Warning!!: The largest alpha MO coefficient is  0.15995778D+02


 **** Warning!!: The largest beta MO coefficient is  0.15783959D+02

   1 Symmetry operations used in ECPInt.
 ECPInt:  NShTT=   10296 NPrTT=   30612 LenC2=    9825 LenP2D=   22618.
 LDataN:  DoStor=T MaxTD1= 7 Len=  274
 Symmetrizing basis deriv contribution to polar:
 IMax=3 JMax=2 DiffMx= 0.00D+00
 G2DrvN: will do    21 centers at a time, making    1 passes.
 Calling FoFCou, ICntrl=  3107 FMM=F I1Cent=   0 AccDes= 0.00D+00.
 End of G2Drv F.D. properties file   721 does not exist.
 End of G2Drv F.D. properties file   722 does not exist.
 End of G2Drv F.D. properties file   788 does not exist.
          IDoAtm=11111111111111111111
          Differentiating once with respect to nuclear coordinates.
 CalDSu exits because no D1Ps are significant.
          There are    63 degrees of freedom in the 1st order CPHF.  IDoFFX=6 NUNeed=     0.
     57 vectors produced by pass  0 Test12= 3.57D-14 1.59D-09 XBig12= 1.50D-01 1.78D-01.
 AX will form    57 AO Fock derivatives at one time.
     57 vectors produced by pass  1 Test12= 3.57D-14 1.59D-09 XBig12= 1.20D-02 2.50D-02.
     57 vectors produced by pass  2 Test12= 3.57D-14 1.59D-09 XBig12= 5.54D-04 5.13D-03.
     57 vectors produced by pass  3 Test12= 3.57D-14 1.59D-09 XBig12= 1.41D-05 5.27D-04.
     57 vectors produced by pass  4 Test12= 3.57D-14 1.59D-09 XBig12= 2.11D-07 7.35D-05.
     57 vectors produced by pass  5 Test12= 3.57D-14 1.59D-09 XBig12= 2.70D-09 4.32D-06.
     57 vectors produced by pass  6 Test12= 3.57D-14 1.59D-09 XBig12= 2.62D-11 4.71D-07.
     36 vectors produced by pass  7 Test12= 3.57D-14 1.59D-09 XBig12= 2.33D-13 3.93D-08.
      9 vectors produced by pass  8 Test12= 3.57D-14 1.59D-09 XBig12= 2.35D-15 3.57D-09.
      1 vectors produced by pass  9 Test12= 3.57D-14 1.59D-09 XBig12= 9.18D-16 1.86D-09.
 InvSVY:  IOpt=1 It=  1 EMax= 5.83D-16
 Solved reduced A of dimension   445 with    63 vectors.
 End of Minotr F.D. properties file   721 does not exist.
 End of Minotr F.D. properties file   722 does not exist.
 End of Minotr F.D. properties file   788 does not exist.

 **********************************************************************

            Population analysis using the SCF Density.

 **********************************************************************

 Alpha  occ. eigenvalues --  -19.36227 -19.36136 -19.30421 -19.25605 -10.35755
 Alpha  occ. eigenvalues --  -10.34302 -10.29733 -10.29179 -10.28212  -1.35238
 Alpha  occ. eigenvalues --   -1.18733  -1.13603  -0.91274  -0.90862  -0.85532
 Alpha  occ. eigenvalues --   -0.78310  -0.73759  -0.68918  -0.62938  -0.61674
 Alpha  occ. eigenvalues --   -0.61130  -0.60095  -0.59346  -0.57856  -0.55205
 Alpha  occ. eigenvalues --   -0.53455  -0.50553  -0.49121  -0.48258  -0.47094
 Alpha  occ. eigenvalues --   -0.45011  -0.44457  -0.42547  -0.41060  -0.36937
 Alpha  occ. eigenvalues --   -0.36840  -0.35812
 Alpha virt. eigenvalues --    0.02320   0.09711   0.13383   0.14045   0.14341
 Alpha virt. eigenvalues --    0.15694   0.17803   0.18361   0.18819   0.19589
 Alpha virt. eigenvalues --    0.20573   0.22598   0.23504   0.24021   0.25590
 Alpha virt. eigenvalues --    0.26089   0.27798   0.28421   0.30201   0.30823
 Alpha virt. eigenvalues --    0.32029   0.32727   0.34783   0.36248   0.37618
 Alpha virt. eigenvalues --    0.39188   0.40168   0.41222   0.42621   0.43793
 Alpha virt. eigenvalues --    0.45210   0.45950   0.46494   0.47835   0.48328
 Alpha virt. eigenvalues --    0.49651   0.49971   0.50640   0.51162   0.52399
 Alpha virt. eigenvalues --    0.52645   0.53711   0.54503   0.55650   0.55922
 Alpha virt. eigenvalues --    0.56169   0.58423   0.58683   0.59322   0.60896
 Alpha virt. eigenvalues --    0.61586   0.63143   0.65756   0.66207   0.67096
 Alpha virt. eigenvalues --    0.68853   0.70863   0.71317   0.74217   0.75722
 Alpha virt. eigenvalues --    0.77772   0.78696   0.82054   0.84920   0.87245
 Alpha virt. eigenvalues --    0.87824   0.90722   0.92315   0.93621   0.93931
 Alpha virt. eigenvalues --    0.95071   0.97423   0.99409   1.02025   1.02871
 Alpha virt. eigenvalues --    1.06384   1.07848   1.11069   1.12229   1.13708
 Alpha virt. eigenvalues --    1.18577   1.19398   1.22659   1.23447   1.26224
 Alpha virt. eigenvalues --    1.27973   1.28435   1.31475   1.32938   1.36832
 Alpha virt. eigenvalues --    1.37730   1.39287   1.39936   1.41115   1.44921
 Alpha virt. eigenvalues --    1.46252   1.50409   1.55636   1.58269   1.59236
 Alpha virt. eigenvalues --    1.61013   1.61208   1.61788   1.64423   1.65796
 Alpha virt. eigenvalues --    1.65830   1.67091   1.68887   1.69486   1.72319
 Alpha virt. eigenvalues --    1.73334   1.76147   1.76735   1.79472   1.81178
 Alpha virt. eigenvalues --    1.82882   1.86786   1.87981   1.88289   1.90229
 Alpha virt. eigenvalues --    1.93002   1.94052   1.95943   1.97289   1.99026
 Alpha virt. eigenvalues --    2.01345   2.04348   2.05132   2.07388   2.09674
 Alpha virt. eigenvalues --    2.11879   2.14183   2.16669   2.18064   2.19214
 Alpha virt. eigenvalues --    2.21277   2.22111   2.24454   2.25808   2.28474
 Alpha virt. eigenvalues --    2.29247   2.32566   2.33237   2.36138   2.38796
 Alpha virt. eigenvalues --    2.40088   2.40449   2.41103   2.43120   2.45152
 Alpha virt. eigenvalues --    2.46693   2.47577   2.51888   2.53466   2.54840
 Alpha virt. eigenvalues --    2.57003   2.58582   2.61061   2.62764   2.63427
 Alpha virt. eigenvalues --    2.65758   2.67090   2.68264   2.68460   2.72498
 Alpha virt. eigenvalues --    2.73485   2.74138   2.75621   2.79514   2.80521
 Alpha virt. eigenvalues --    2.82427   2.84017   2.85163   2.86496   2.87868
 Alpha virt. eigenvalues --    2.88654   2.90376   2.90412   2.93767   2.95127
 Alpha virt. eigenvalues --    2.98063   3.01626   3.03619   3.04881   3.07647
 Alpha virt. eigenvalues --    3.09310   3.11062   3.13071   3.13957   3.16757
 Alpha virt. eigenvalues --    3.18365   3.20335   3.21565   3.23235   3.23871
 Alpha virt. eigenvalues --    3.27518   3.29225   3.30151   3.30950   3.33897
 Alpha virt. eigenvalues --    3.36856   3.39456   3.40189   3.43541   3.44594
 Alpha virt. eigenvalues --    3.48286   3.49684   3.52755   3.53114   3.54681
 Alpha virt. eigenvalues --    3.55462   3.57998   3.60039   3.62899   3.64441
 Alpha virt. eigenvalues --    3.67560   3.71953   3.77057   3.78806   3.81923
 Alpha virt. eigenvalues --    3.85189   3.91576   3.93751   3.95383   3.99505
 Alpha virt. eigenvalues --    4.02556   4.03659   4.08479   4.10825   4.14202
 Alpha virt. eigenvalues --    4.18203   4.20678   4.26104   4.30039   4.33472
 Alpha virt. eigenvalues --    4.35726   4.44900   4.46274   4.47628   4.51126
 Alpha virt. eigenvalues --    4.54802   4.55580   4.64786   4.67783   4.70553
 Alpha virt. eigenvalues --    4.72120   4.72577   4.73897   4.74777   4.78146
 Alpha virt. eigenvalues --    4.83461   4.85110   4.88322   4.99855   5.04170
 Alpha virt. eigenvalues --    5.04983   5.07530   5.14306   5.24729   5.27356
 Alpha virt. eigenvalues --    5.31975   5.36979   5.42493   5.47627   5.57413
 Alpha virt. eigenvalues --    5.57779   5.74356   5.74983   5.86671   5.87869
 Alpha virt. eigenvalues --    5.92360   5.95691   6.00662   6.21506   6.21860
 Alpha virt. eigenvalues --    6.25704   6.33419   6.35029   6.37009   6.38798
 Alpha virt. eigenvalues --    6.39361   6.45468   6.46738   6.47388   6.52093
 Alpha virt. eigenvalues --    6.58154   6.70998   6.80111   6.80553   6.83770
 Alpha virt. eigenvalues --    6.88221   7.05253   7.07756   7.24697   7.25615
 Alpha virt. eigenvalues --    7.27133   7.29231   7.53062   8.76187  22.43630
 Alpha virt. eigenvalues --   22.58266  22.61898  22.65441  22.75220  43.40587
 Alpha virt. eigenvalues --   43.75719  43.92103  44.04915
  Beta  occ. eigenvalues --  -19.34004 -19.33819 -19.30624 -19.25607 -10.36506
  Beta  occ. eigenvalues --  -10.34307 -10.29657 -10.29255 -10.28212  -1.30126
  Beta  occ. eigenvalues --   -1.19415  -1.13610  -0.91464  -0.85998  -0.83313
  Beta  occ. eigenvalues --   -0.79134  -0.74043  -0.68975  -0.62744  -0.60471
  Beta  occ. eigenvalues --   -0.58971  -0.56905  -0.55813  -0.54207  -0.53085
  Beta  occ. eigenvalues --   -0.51668  -0.51158  -0.49112  -0.48807  -0.47071
  Beta  occ. eigenvalues --   -0.45077  -0.44500  -0.42874  -0.41156  -0.36921
  Beta  occ. eigenvalues --   -0.22616
  Beta virt. eigenvalues --   -0.06140  -0.01628   0.09661   0.13334   0.14085
  Beta virt. eigenvalues --    0.14462   0.15567   0.17743   0.18676   0.18789
  Beta virt. eigenvalues --    0.19560   0.20591   0.22659   0.23491   0.24012
  Beta virt. eigenvalues --    0.25771   0.26849   0.28063   0.28457   0.30176
  Beta virt. eigenvalues --    0.30670   0.32229   0.33382   0.34704   0.36191
  Beta virt. eigenvalues --    0.37775   0.39112   0.40316   0.41155   0.42395
  Beta virt. eigenvalues --    0.43868   0.45190   0.46106   0.46337   0.47902
  Beta virt. eigenvalues --    0.48312   0.49749   0.50047   0.50619   0.51041
  Beta virt. eigenvalues --    0.52432   0.53273   0.53943   0.54517   0.55726
  Beta virt. eigenvalues --    0.55942   0.56694   0.58704   0.58865   0.59615
  Beta virt. eigenvalues --    0.61107   0.61672   0.63598   0.66054   0.66202
  Beta virt. eigenvalues --    0.67117   0.69075   0.71219   0.71985   0.74614
  Beta virt. eigenvalues --    0.75895   0.77938   0.78648   0.82053   0.85000
  Beta virt. eigenvalues --    0.87196   0.87996   0.90901   0.92381   0.93172
  Beta virt. eigenvalues --    0.93813   0.95052   0.97487   0.99181   1.01719
  Beta virt. eigenvalues --    1.02605   1.05946   1.07725   1.10953   1.11972
  Beta virt. eigenvalues --    1.13381   1.18585   1.19141   1.22665   1.23371
  Beta virt. eigenvalues --    1.26297   1.28031   1.28504   1.31489   1.32893
  Beta virt. eigenvalues --    1.36706   1.39105   1.40110   1.42115   1.42460
  Beta virt. eigenvalues --    1.44958   1.46800   1.50438   1.54952   1.58262
  Beta virt. eigenvalues --    1.59124   1.60577   1.61137   1.61608   1.64543
  Beta virt. eigenvalues --    1.65829   1.66763   1.67073   1.69264   1.71240
  Beta virt. eigenvalues --    1.72546   1.73876   1.76454   1.77501   1.79925
  Beta virt. eigenvalues --    1.81332   1.82974   1.86705   1.87947   1.88270
  Beta virt. eigenvalues --    1.89579   1.92989   1.94136   1.95797   1.97240
  Beta virt. eigenvalues --    1.99300   2.02413   2.04264   2.05367   2.07486
  Beta virt. eigenvalues --    2.09628   2.11974   2.14355   2.17185   2.18230
  Beta virt. eigenvalues --    2.19533   2.22002   2.22487   2.26110   2.27222
  Beta virt. eigenvalues --    2.28965   2.29695   2.32614   2.33211   2.35804
  Beta virt. eigenvalues --    2.38914   2.40014   2.40421   2.41098   2.43082
  Beta virt. eigenvalues --    2.45361   2.46629   2.47646   2.52441   2.53569
  Beta virt. eigenvalues --    2.55132   2.57301   2.60506   2.62470   2.63622
  Beta virt. eigenvalues --    2.64618   2.66360   2.67402   2.68492   2.68802
  Beta virt. eigenvalues --    2.72785   2.73262   2.73841   2.76452   2.79767
  Beta virt. eigenvalues --    2.80456   2.82494   2.84520   2.85365   2.87763
  Beta virt. eigenvalues --    2.88586   2.89565   2.90400   2.92373   2.94349
  Beta virt. eigenvalues --    2.95335   2.98856   3.02039   3.03280   3.04977
  Beta virt. eigenvalues --    3.07437   3.08817   3.11496   3.12225   3.14114
  Beta virt. eigenvalues --    3.15958   3.18444   3.20385   3.21928   3.22629
  Beta virt. eigenvalues --    3.23669   3.26876   3.29116   3.29964   3.30525
  Beta virt. eigenvalues --    3.33618   3.36489   3.39093   3.40061   3.43312
  Beta virt. eigenvalues --    3.44259   3.47689   3.49071   3.52327   3.52792
  Beta virt. eigenvalues --    3.53723   3.55287   3.57570   3.59789   3.62815
  Beta virt. eigenvalues --    3.64263   3.66748   3.71823   3.76878   3.78568
  Beta virt. eigenvalues --    3.81484   3.84725   3.91273   3.93348   3.95134
  Beta virt. eigenvalues --    3.99348   4.02169   4.03477   4.08212   4.10628
  Beta virt. eigenvalues --    4.14031   4.17849   4.20503   4.25788   4.29847
  Beta virt. eigenvalues --    4.33730   4.37550   4.44773   4.46260   4.47267
  Beta virt. eigenvalues --    4.50499   4.54540   4.55338   4.64730   4.67813
  Beta virt. eigenvalues --    4.73191   4.73617   4.75838   4.75850   4.76617
  Beta virt. eigenvalues --    4.79063   4.83396   4.84677   4.88113   4.99779
  Beta virt. eigenvalues --    5.08422   5.10108   5.12460   5.14383   5.29598
  Beta virt. eigenvalues --    5.31999   5.33261   5.36978   5.42329   5.47622
  Beta virt. eigenvalues --    5.57054   5.57777   5.78830   5.79313   5.86660
  Beta virt. eigenvalues --    5.87839   5.91369   5.95198   6.00654   6.23579
  Beta virt. eigenvalues --    6.27094   6.31991   6.38394   6.39349   6.41052
  Beta virt. eigenvalues --    6.41623   6.45104   6.48984   6.51465   6.52130
  Beta virt. eigenvalues --    6.54530   6.58245   6.73681   6.79888   6.80551
  Beta virt. eigenvalues --    6.84004   6.88217   7.05067   7.07752   7.26345
  Beta virt. eigenvalues --    7.27071   7.28469   7.31177   7.55947   8.79141
  Beta virt. eigenvalues --   22.43628  22.58171  22.61854  22.65305  22.74181
  Beta virt. eigenvalues --   43.42918  43.77790  43.92043  44.04916
          Condensed to atoms (all electrons):
               1          2          3          4          5          6
     1  C    4.939034   0.322363  -0.024055  -0.064193   0.010221   0.002094
     2  C    0.322363   4.917459   0.278387   0.199463  -0.026377   0.038431
     3  O   -0.024055   0.278387   8.037163  -0.083047  -0.001925   0.001651
     4  C   -0.064193   0.199463  -0.083047   5.341804   0.253392  -0.111491
     5  C    0.010221  -0.026377  -0.001925   0.253392   5.016038   0.358297
     6  C    0.002094   0.038431   0.001651  -0.111491   0.358297   5.090693
     7  O   -0.000059  -0.009411   0.000072   0.015545  -0.064693   0.311009
     8  H    0.410719  -0.043247  -0.003709   0.014403  -0.000711   0.000211
     9  H    0.410985  -0.033915   0.000773  -0.009976  -0.000074  -0.000238
    10  H    0.408132  -0.041228   0.006029  -0.004241   0.000054  -0.000017
    11  H   -0.042056   0.403850  -0.052582  -0.051401  -0.008235  -0.007477
    12  H   -0.004387  -0.033316   0.297392   0.016316  -0.001599   0.000533
    13  H   -0.008649  -0.020323   0.004164   0.401528  -0.033627   0.005593
    14  H    0.001421  -0.037569   0.003824   0.399543  -0.027269  -0.002285
    15  H    0.000056   0.015726   0.000178  -0.100946   0.401164  -0.034211
    16  H    0.000398  -0.007062   0.009603  -0.033326   0.397087  -0.025524
    17  H    0.000383   0.003539   0.002313  -0.005985  -0.055776   0.420844
    18  H   -0.000052  -0.002483   0.000033   0.013101   0.004757  -0.046181
    19  O   -0.000001  -0.002009   0.000001   0.003501   0.013910  -0.010170
    20  O   -0.000031   0.001652  -0.000001  -0.017003   0.001181   0.002051
               7          8          9         10         11         12
     1  C   -0.000059   0.410719   0.410985   0.408132  -0.042056  -0.004387
     2  C   -0.009411  -0.043247  -0.033915  -0.041228   0.403850  -0.033316
     3  O    0.000072  -0.003709   0.000773   0.006029  -0.052582   0.297392
     4  C    0.015545   0.014403  -0.009976  -0.004241  -0.051401   0.016316
     5  C   -0.064693  -0.000711  -0.000074   0.000054  -0.008235  -0.001599
     6  C    0.311009   0.000211  -0.000238  -0.000017  -0.007477   0.000533
     7  O    7.856881   0.000001   0.000002  -0.000032   0.002912   0.000001
     8  H    0.000001   0.562395  -0.027048  -0.020304  -0.009222   0.004293
     9  H    0.000002  -0.027048   0.543457  -0.021664   0.009233  -0.001512
    10  H   -0.000032  -0.020304  -0.021664   0.552717   0.000228   0.000379
    11  H    0.002912  -0.009222   0.009233   0.000228   0.679060  -0.007819
    12  H    0.000001   0.004293  -0.001512   0.000379  -0.007819   0.419868
    13  H   -0.000002  -0.000169   0.004566   0.001028   0.008693  -0.000362
    14  H   -0.000509  -0.000328   0.000499   0.000887   0.001445  -0.000648
    15  H    0.003488   0.000018  -0.000052  -0.000006  -0.000751   0.000020
    16  H    0.004158  -0.000008   0.000078  -0.000084   0.000880  -0.000737
    17  H   -0.036000  -0.000008  -0.000008  -0.000031  -0.003663  -0.000094
    18  H    0.283403  -0.000001   0.000004  -0.000038   0.000164   0.000001
    19  O   -0.037902  -0.000000   0.000006  -0.000037   0.000313  -0.000000
    20  O    0.007862   0.000000  -0.000003   0.000011  -0.000089   0.000000
              13         14         15         16         17         18
     1  C   -0.008649   0.001421   0.000056   0.000398   0.000383  -0.000052
     2  C   -0.020323  -0.037569   0.015726  -0.007062   0.003539  -0.002483
     3  O    0.004164   0.003824   0.000178   0.009603   0.002313   0.000033
     4  C    0.401528   0.399543  -0.100946  -0.033326  -0.005985   0.013101
     5  C   -0.033627  -0.027269   0.401164   0.397087  -0.055776   0.004757
     6  C    0.005593  -0.002285  -0.034211  -0.025524   0.420844  -0.046181
     7  O   -0.000002  -0.000509   0.003488   0.004158  -0.036000   0.283403
     8  H   -0.000169  -0.000328   0.000018  -0.000008  -0.000008  -0.000001
     9  H    0.004566   0.000499  -0.000052   0.000078  -0.000008   0.000004
    10  H    0.001028   0.000887  -0.000006  -0.000084  -0.000031  -0.000038
    11  H    0.008693   0.001445  -0.000751   0.000880  -0.003663   0.000164
    12  H   -0.000362  -0.000648   0.000020  -0.000737  -0.000094   0.000001
    13  H    0.553363  -0.018774  -0.004469  -0.003365  -0.000447  -0.000071
    14  H   -0.018774   0.547822   0.000115   0.004983   0.000717  -0.001549
    15  H   -0.004469   0.000115   0.567156  -0.005798   0.004813  -0.008165
    16  H   -0.003365   0.004983  -0.005798   0.521102   0.000972  -0.000404
    17  H   -0.000447   0.000717   0.004813   0.000972   0.512999   0.003070
    18  H   -0.000071  -0.001549  -0.008165  -0.000404   0.003070   0.369906
    19  O    0.000532   0.006070  -0.015601  -0.000170  -0.000364   0.070024
    20  O   -0.000192  -0.001104   0.027515   0.001218   0.000167  -0.019353
              19         20
     1  C   -0.000001  -0.000031
     2  C   -0.002009   0.001652
     3  O    0.000001  -0.000001
     4  C    0.003501  -0.017003
     5  C    0.013910   0.001181
     6  C   -0.010170   0.002051
     7  O   -0.037902   0.007862
     8  H   -0.000000   0.000000
     9  H    0.000006  -0.000003
    10  H   -0.000037   0.000011
    11  H    0.000313  -0.000089
    12  H   -0.000000   0.000000
    13  H    0.000532  -0.000192
    14  H    0.006070  -0.001104
    15  H   -0.015601   0.027515
    16  H   -0.000170   0.001218
    17  H   -0.000364   0.000167
    18  H    0.070024  -0.019353
    19  O    8.098047   0.029951
    20  O    0.029951   8.054057
          Atomic-Atomic Spin Densities.
               1          2          3          4          5          6
     1  C   -0.001762  -0.000121  -0.000219   0.002714   0.000536  -0.001982
     2  C   -0.000121  -0.012514   0.002126   0.046416  -0.000492  -0.036566
     3  O   -0.000219   0.002126  -0.001523  -0.003414   0.000649   0.000854
     4  C    0.002714   0.046416  -0.003414  -0.205470  -0.018079   0.108183
     5  C    0.000536  -0.000492   0.000649  -0.018079   0.049968  -0.019403
     6  C   -0.001982  -0.036566   0.000854   0.108183  -0.019403  -0.783573
     7  O    0.000064   0.002615  -0.000009  -0.007644   0.004871   0.116595
     8  H   -0.000911   0.000743  -0.000015   0.000419  -0.000061  -0.000112
     9  H    0.001002  -0.000713  -0.000008  -0.000299   0.000052   0.000151
    10  H   -0.000223  -0.000113   0.000012   0.000622  -0.000066  -0.000250
    11  H    0.002269   0.001225  -0.000510  -0.009255  -0.000257   0.010007
    12  H   -0.000092  -0.000143   0.000122   0.000296  -0.000077  -0.000066
    13  H   -0.000101  -0.001061  -0.000010   0.000936  -0.000627   0.000265
    14  H   -0.000464  -0.004274   0.000033   0.010537  -0.000160  -0.006681
    15  H   -0.000236  -0.007676   0.000242   0.053286   0.023354   0.003469
    16  H   -0.000182  -0.004779   0.000639   0.019705  -0.000259  -0.000706
    17  H   -0.000066  -0.002444   0.000123   0.006304   0.000651  -0.001452
    18  H    0.000046   0.002382  -0.000011  -0.014268  -0.004098   0.017570
    19  O    0.000076   0.000294  -0.000002  -0.011900  -0.003139   0.012041
    20  O   -0.000017  -0.000525   0.000002   0.014508   0.000625  -0.005147
               7          8          9         10         11         12
     1  C    0.000064  -0.000911   0.001002  -0.000223   0.002269  -0.000092
     2  C    0.002615   0.000743  -0.000713  -0.000113   0.001225  -0.000143
     3  O   -0.000009  -0.000015  -0.000008   0.000012  -0.000510   0.000122
     4  C   -0.007644   0.000419  -0.000299   0.000622  -0.009255   0.000296
     5  C    0.004871  -0.000061   0.000052  -0.000066  -0.000257  -0.000077
     6  C    0.116595  -0.000112   0.000151  -0.000250   0.010007  -0.000066
     7  O   -0.163250   0.000003  -0.000003   0.000018  -0.000841   0.000001
     8  H    0.000003  -0.000694   0.000259  -0.000134   0.000186  -0.000019
     9  H   -0.000003   0.000259  -0.000930   0.000112  -0.000116   0.000009
    10  H    0.000018  -0.000134   0.000112  -0.000142   0.000186  -0.000005
    11  H   -0.000841   0.000186  -0.000116   0.000186  -0.001439   0.000018
    12  H    0.000001  -0.000019   0.000009  -0.000005   0.000018  -0.000045
    13  H   -0.000034  -0.000004   0.000063  -0.000024   0.000107  -0.000005
    14  H    0.001157  -0.000039   0.000109  -0.000139   0.000569  -0.000004
    15  H   -0.007730  -0.000010   0.000046  -0.000034   0.000611  -0.000008
    16  H   -0.000040  -0.000011   0.000027  -0.000011   0.000426  -0.000024
    17  H    0.000321  -0.000005   0.000003  -0.000006   0.000444  -0.000006
    18  H    0.006713   0.000003  -0.000006   0.000023  -0.000441   0.000001
    19  O   -0.006480   0.000001  -0.000002   0.000002  -0.000029   0.000000
    20  O   -0.000550  -0.000000   0.000001  -0.000002   0.000016  -0.000000
              13         14         15         16         17         18
     1  C   -0.000101  -0.000464  -0.000236  -0.000182  -0.000066   0.000046
     2  C   -0.001061  -0.004274  -0.007676  -0.004779  -0.002444   0.002382
     3  O   -0.000010   0.000033   0.000242   0.000639   0.000123  -0.000011
     4  C    0.000936   0.010537   0.053286   0.019705   0.006304  -0.014268
     5  C   -0.000627  -0.000160   0.023354  -0.000259   0.000651  -0.004098
     6  C    0.000265  -0.006681   0.003469  -0.000706  -0.001452   0.017570
     7  O   -0.000034   0.001157  -0.007730  -0.000040   0.000321   0.006713
     8  H   -0.000004  -0.000039  -0.000010  -0.000011  -0.000005   0.000003
     9  H    0.000063   0.000109   0.000046   0.000027   0.000003  -0.000006
    10  H   -0.000024  -0.000139  -0.000034  -0.000011  -0.000006   0.000023
    11  H    0.000107   0.000569   0.000611   0.000426   0.000444  -0.000441
    12  H   -0.000005  -0.000004  -0.000008  -0.000024  -0.000006   0.000001
    13  H    0.002025  -0.000047  -0.000441  -0.000381  -0.000006  -0.000001
    14  H   -0.000047   0.000187  -0.002363  -0.000350  -0.000047   0.000961
    15  H   -0.000441  -0.002363  -0.083840  -0.009573  -0.002210   0.008835
    16  H   -0.000381  -0.000350  -0.009573  -0.010636  -0.001637   0.000606
    17  H   -0.000006  -0.000047  -0.002210  -0.001637   0.018020   0.001689
    18  H   -0.000001   0.000961   0.008835   0.000606   0.001689  -0.029889
    19  O    0.000267   0.004454   0.006901   0.000060   0.000231  -0.008720
    20  O   -0.000511  -0.003637  -0.018196  -0.000265  -0.000186   0.004780
              19         20
     1  C    0.000076  -0.000017
     2  C    0.000294  -0.000525
     3  O   -0.000002   0.000002
     4  C   -0.011900   0.014508
     5  C   -0.003139   0.000625
     6  C    0.012041  -0.005147
     7  O   -0.006480  -0.000550
     8  H    0.000001  -0.000000
     9  H   -0.000002   0.000001
    10  H    0.000002  -0.000002
    11  H   -0.000029   0.000016
    12  H    0.000000  -0.000000
    13  H    0.000267  -0.000511
    14  H    0.004454  -0.003637
    15  H    0.006901  -0.018196
    16  H    0.000060  -0.000265
    17  H    0.000231  -0.000186
    18  H   -0.008720   0.004780
    19  O    1.080170  -0.295545
    20  O   -0.295545   1.190171
 Mulliken charges and spin densities:
               1          2
     1  C   -0.362322   0.000332
     2  C    0.076069  -0.015620
     3  O   -0.476264  -0.000921
     4  C   -0.176987  -0.006405
     5  C   -0.235815   0.033988
     6  C    0.006188  -0.586805
     7  O   -0.336724  -0.054226
     8  H    0.112715  -0.000401
     9  H    0.124887  -0.000242
    10  H    0.118219  -0.000174
    11  H    0.076519   0.003176
    12  H    0.311669  -0.000048
    13  H    0.110984   0.000410
    14  H    0.122708  -0.000198
    15  H    0.149749  -0.035574
    16  H    0.136000  -0.007391
    17  H    0.152559   0.019720
    18  H    0.333835  -0.013827
    19  O   -0.156102   0.778679
    20  O   -0.087888   0.885523
 Sum of Mulliken charges =  -0.00000   1.00000
 Mulliken charges and spin densities with hydrogens summed into heavy atoms:
               1          2
     1  C   -0.006501  -0.000484
     2  C    0.152588  -0.012444
     3  O   -0.164595  -0.000969
     4  C    0.056705  -0.006192
     5  C    0.049935  -0.008977
     6  C    0.158747  -0.567085
     7  O   -0.002889  -0.068052
    19  O   -0.156102   0.778679
    20  O   -0.087888   0.885523
 APT charges:
               1
     1  C   -1.309894
     2  C   -0.051023
     3  O   -1.050845
     4  C   -0.412021
     5  C   -0.818076
     6  C   -0.348260
     7  O   -0.285955
     8  H    0.584627
     9  H    0.396043
    10  H    0.230805
    11  H    0.218668
    12  H    0.903428
    13  H    0.364302
    14  H    0.211249
    15  H    0.329393
    16  H    0.414017
    17  H    0.509076
    18  H    0.345845
    19  O   -0.139844
    20  O   -0.091533
 Sum of APT charges =  -0.00000
 APT charges with hydrogens summed into heavy atoms:
               1
     1  C   -0.098419
     2  C    0.167644
     3  O   -0.147417
     4  C    0.163530
     5  C   -0.074666
     6  C    0.160816
     7  O    0.059889
    19  O   -0.139844
    20  O   -0.091533
 Electronic spatial extent (au):  <R**2>=           1680.2007
 Charge=             -0.0000 electrons
 Dipole moment (field-independent basis, Debye):
    X=             -3.0264    Y=             -0.5192    Z=              0.8114  Tot=              3.1761
 Quadrupole moment (field-independent basis, Debye-Ang):
   XX=            -55.5481   YY=            -54.9997   ZZ=            -56.4768
   XY=             -0.8225   XZ=             -3.9541   YZ=              0.2925
 Traceless Quadrupole moment (field-independent basis, Debye-Ang):
   XX=              0.1267   YY=              0.6752   ZZ=             -0.8019
   XY=             -0.8225   XZ=             -3.9541   YZ=              0.2925
 Octapole moment (field-independent basis, Debye-Ang**2):
  XXX=            -27.6301  YYY=             -4.6958  ZZZ=             -1.1370  XYY=             -3.6061
  XXY=             -8.0575  XXZ=             10.7890  XZZ=              4.3534  YZZ=              2.5114
  YYZ=             -0.0737  XYZ=              6.0978
 Hexadecapole moment (field-independent basis, Debye-Ang**3):
 XXXX=          -1255.8344 YYYY=           -457.4228 ZZZZ=           -221.4516 XXXY=             44.5256
 XXXZ=            -16.0241 YYYX=             29.6968 YYYZ=             -8.4755 ZZZX=              4.4632
 ZZZY=             -1.7421 XXYY=           -320.5113 XXZZ=           -277.2401 YYZZ=           -116.4264
 XXYZ=             -2.2775 YYXZ=             -1.4351 ZZXY=              8.0747
 N-N= 4.741445277100D+02 E-N=-2.116116576042D+03  KE= 4.958043004682D+02
  Exact polarizability:       0.000       0.000       0.000       0.000       0.000       0.000
 Approx polarizability:     113.776      46.005     137.812      -5.785     -10.339      90.665
                          Isotropic Fermi Contact Couplings
        Atom                 a.u.       MegaHertz       Gauss      10(-4) cm-1
     1  C(13)              0.00002       0.02202       0.00786       0.00734
     2  C(13)             -0.00241      -2.71093      -0.96733      -0.90427
     3  O(17)             -0.00027       0.16552       0.05906       0.05521
     4  C(13)             -0.03685     -41.43065     -14.78349     -13.81978
     5  C(13)              0.02231      25.08496       8.95094       8.36744
     6  C(13)             -0.04571     -51.39083     -18.33753     -17.14214
     7  O(17)             -0.03725      22.57968       8.05699       7.53177
     8  H(1)              -0.00015      -0.68086      -0.24295      -0.22711
     9  H(1)              -0.00025      -1.09700      -0.39144      -0.36592
    10  H(1)              -0.00000      -0.01982      -0.00707      -0.00661
    11  H(1)              -0.00008      -0.35690      -0.12735      -0.11905
    12  H(1)               0.00002       0.07754       0.02767       0.02586
    13  H(1)               0.00024       1.05439       0.37623       0.35171
    14  H(1)               0.00063       2.79698       0.99803       0.93297
    15  H(1)              -0.00640     -28.61322     -10.20991      -9.54434
    16  H(1)              -0.00282     -12.59980      -4.49592      -4.20284
    17  H(1)               0.00975      43.57397      15.54828      14.53471
    18  H(1)              -0.00406     -18.16513      -6.48177      -6.05923
    19  O(17)              0.11030     -66.86239     -23.85816     -22.30289
    20  O(17)              0.12048     -73.03200     -26.05963     -24.36085
 --------------------------------------------------------
       Center         ----  Spin Dipole Couplings  ----
                      3XX-RR        3YY-RR        3ZZ-RR
 --------------------------------------------------------
     1   Atom        0.002347     -0.002028     -0.000320
     2   Atom        0.003911     -0.001873     -0.002038
     3   Atom        0.000022      0.000509     -0.000531
     4   Atom        0.023218     -0.037043      0.013825
     5   Atom        0.017890     -0.010667     -0.007223
     6   Atom       -0.048992      0.078745     -0.029753
     7   Atom       -0.154100      0.334745     -0.180645
     8   Atom        0.000945     -0.000784     -0.000161
     9   Atom        0.002130     -0.001545     -0.000586
    10   Atom        0.003325     -0.002572     -0.000753
    11   Atom       -0.001415      0.000258      0.001157
    12   Atom       -0.000966      0.000592      0.000375
    13   Atom        0.010527     -0.006814     -0.003713
    14   Atom        0.025761     -0.019404     -0.006357
    15   Atom        0.011539      0.000438     -0.011977
    16   Atom        0.002951      0.006998     -0.009949
    17   Atom        0.009480     -0.031820      0.022340
    18   Atom       -0.015436      0.025846     -0.010410
    19   Atom        1.213255      0.679223     -1.892478
    20   Atom        1.275235      0.844448     -2.119683
 --------------------------------------------------------
                        XY            XZ            YZ
 --------------------------------------------------------
     1   Atom        0.001306     -0.000443      0.000220
     2   Atom        0.007222     -0.002469      0.003588
     3   Atom        0.002340     -0.001818     -0.001675
     4   Atom        0.031404      0.009193     -0.013014
     5   Atom        0.011591     -0.009142      0.009847
     6   Atom        0.367065      0.419197     -0.345427
     7   Atom        0.072901      0.370396     -0.081945
     8   Atom        0.001001     -0.000166     -0.000228
     9   Atom        0.000655     -0.000064      0.000166
    10   Atom        0.000345     -0.001014     -0.000324
    11   Atom        0.008261      0.001686     -0.001416
    12   Atom        0.001182     -0.000338      0.000050
    13   Atom        0.003747      0.001944      0.003888
    14   Atom        0.002519     -0.003873     -0.000782
    15   Atom        0.017465      0.008989      0.018202
    16   Atom        0.007587     -0.005603      0.004910
    17   Atom       -0.015242      0.030232      0.008273
    18   Atom        0.023531     -0.011384     -0.035779
    19   Atom       -0.467700      0.476260     -0.233182
    20   Atom       -0.476502      0.510360     -0.289977
 --------------------------------------------------------


 ---------------------------------------------------------------------------------
              Anisotropic Spin Dipole Couplings in Principal Axis System
 ---------------------------------------------------------------------------------

       Atom             a.u.   MegaHertz   Gauss  10(-4) cm-1        Axes

              Baa    -0.0024    -0.327    -0.117    -0.109 -0.2734  0.9492 -0.1556
     1 C(13)  Bbb    -0.0003    -0.042    -0.015    -0.014  0.0740  0.1821  0.9805
              Bcc     0.0028     0.369     0.132     0.123  0.9591  0.2565 -0.1200
 
              Baa    -0.0094    -1.255    -0.448    -0.419 -0.4824  0.7111 -0.5115
     2 C(13)  Bbb     0.0006     0.075     0.027     0.025 -0.2838  0.4256  0.8592
              Bcc     0.0088     1.181     0.421     0.394  0.8287  0.5596 -0.0036
 
              Baa    -0.0022     0.160     0.057     0.053  0.7928 -0.3977  0.4618
     3 O(17)  Bbb    -0.0018     0.127     0.045     0.042 -0.1040  0.6583  0.7455
              Bcc     0.0040    -0.287    -0.102    -0.096  0.6005  0.6391 -0.4806
 
              Baa    -0.0540    -7.248    -2.586    -2.418 -0.3899  0.8932  0.2242
     4 C(13)  Bbb     0.0169     2.263     0.807     0.755 -0.0628 -0.2687  0.9612
              Bcc     0.0372     4.986     1.779     1.663  0.9187  0.3606  0.1608
 
              Baa    -0.0241    -3.237    -1.155    -1.080 -0.3314  0.7262 -0.6024
     5 C(13)  Bbb     0.0010     0.140     0.050     0.047 -0.0165  0.6339  0.7733
              Bcc     0.0231     3.097     1.105     1.033  0.9433  0.2662 -0.1981
 
              Baa    -0.7611  -102.133   -36.444   -34.068  0.6162 -0.5146 -0.5962
     6 C(13)  Bbb     0.3724    49.968    17.830    16.668  0.2594 -0.5822  0.7705
              Bcc     0.3887    52.165    18.614    17.400  0.7436  0.6295  0.2253
 
              Baa    -0.5516    39.910    14.241    13.313 -0.6886  0.1227  0.7147
     7 O(17)  Bbb     0.2031   -14.698    -5.245    -4.903  0.7224  0.0300  0.6908
              Bcc     0.3484   -25.212    -8.996    -8.410  0.0633  0.9920 -0.1093
 
              Baa    -0.0013    -0.672    -0.240    -0.224 -0.4018  0.9067  0.1280
     8 H(1)   Bbb    -0.0002    -0.097    -0.034    -0.032  0.1916 -0.0534  0.9800
              Bcc     0.0014     0.769     0.274     0.256  0.8955  0.4183 -0.1522
 
              Baa    -0.0017    -0.899    -0.321    -0.300 -0.1695  0.9729 -0.1572
     9 H(1)   Bbb    -0.0006    -0.298    -0.106    -0.099 -0.0145  0.1570  0.9875
              Bcc     0.0022     1.197     0.427     0.399  0.9854  0.1697 -0.0125
 
              Baa    -0.0026    -1.405    -0.501    -0.469 -0.0310  0.9877  0.1533
    10 H(1)   Bbb    -0.0010    -0.511    -0.182    -0.170  0.2390 -0.1416  0.9606
              Bcc     0.0036     1.916     0.684     0.639  0.9705  0.0665 -0.2316
 
              Baa    -0.0093    -4.985    -1.779    -1.663  0.7267 -0.6556 -0.2051
    11 H(1)   Bbb     0.0016     0.863     0.308     0.288  0.1436 -0.1470  0.9787
              Bcc     0.0077     4.122     1.471     1.375  0.6717  0.7407  0.0127
 
              Baa    -0.0017    -0.883    -0.315    -0.294  0.8725 -0.4628  0.1569
    12 H(1)   Bbb     0.0004     0.219     0.078     0.073 -0.0718  0.1961  0.9780
              Bcc     0.0012     0.664     0.237     0.222  0.4834  0.8645 -0.1379
 
              Baa    -0.0097    -5.158    -1.841    -1.721 -0.1074  0.8481 -0.5188
    13 H(1)   Bbb    -0.0021    -1.132    -0.404    -0.377 -0.2700  0.4773  0.8363
              Bcc     0.0118     6.290     2.244     2.098  0.9569  0.2299  0.1777
 
              Baa    -0.0196   -10.441    -3.726    -3.483 -0.0517  0.9977  0.0439
    14 H(1)   Bbb    -0.0068    -3.628    -1.294    -1.210  0.1209 -0.0374  0.9920
              Bcc     0.0264    14.069     5.020     4.693  0.9913  0.0566 -0.1187
 
              Baa    -0.0253   -13.500    -4.817    -4.503  0.1045 -0.6205  0.7772
    15 H(1)   Bbb    -0.0067    -3.588    -1.280    -1.197  0.7159 -0.4955 -0.4919
              Bcc     0.0320    17.088     6.097     5.700  0.6903  0.6078  0.3924
 
              Baa    -0.0147    -7.817    -2.789    -2.608  0.4143 -0.3370  0.8454
    16 H(1)   Bbb     0.0018     0.968     0.345     0.323  0.6847 -0.4966 -0.5335
              Bcc     0.0128     6.850     2.444     2.285  0.5996  0.7999  0.0249
 
              Baa    -0.0425   -22.678    -8.092    -7.565  0.4282  0.8495 -0.3080
    17 H(1)   Bbb    -0.0044    -2.374    -0.847    -0.792  0.6402 -0.5258 -0.5601
              Bcc     0.0470    25.052     8.939     8.356  0.6378 -0.0426  0.7690
 
              Baa    -0.0331   -17.674    -6.307    -5.896 -0.2691  0.5758  0.7721
    18 H(1)   Bbb    -0.0240   -12.821    -4.575    -4.277  0.9020 -0.1303  0.4116
              Bcc     0.0572    30.496    10.882    10.172  0.3376  0.8071 -0.4843
 
              Baa    -1.9740   142.834    50.967    47.644 -0.1385  0.0624  0.9884
    19 O(17)  Bbb     0.4082   -29.539   -10.540    -9.853  0.4958  0.8683  0.0146
              Bcc     1.5657  -113.295   -40.426   -37.791  0.8573 -0.4921  0.1512
 
              Baa    -2.2106   159.959    57.077    53.357 -0.1347  0.0728  0.9882
    20 O(17)  Bbb     0.5373   -38.878   -13.872   -12.968  0.5370  0.8435  0.0111
              Bcc     1.6733  -121.082   -43.205   -40.388  0.8328 -0.5322  0.1527
 

 ---------------------------------------------------------------------------------

   1 Symmetry operations used in ECPInt.
 ECPInt:  NShTT=   10296 NPrTT=   30612 LenC2=    9825 LenP2D=   22618.
 LDataN:  DoStor=T MaxTD1= 8 Len=  415
 Calling FoFJK, ICntrl=    100127 FMM=F ISym2X=0 I1Cent= 0 IOpClX= 1 NMat=1 NMatS=1 NMatT=0.
 -------------------------------------------------------------------
 Center     Atomic                   Forces (Hartrees/Bohr)
 Number     Number              X              Y              Z
 -------------------------------------------------------------------
      1        6           0.000000276    0.000006316   -0.000003266
      2        6          -0.000003395   -0.000003197   -0.000003506
      3        8           0.000002549    0.000000236    0.000001141
      4        6           0.000003654    0.000006678   -0.000008667
      5        6          -0.000009671   -0.000002378   -0.000003020
      6        6          -0.000009003   -0.000017852   -0.000016026
      7        8           0.000008325   -0.000012854    0.000020338
      8        1           0.000000213   -0.000001276    0.000000039
      9        1           0.000002776   -0.000001400    0.000003980
     10        1          -0.000001153   -0.000002700    0.000000033
     11        1           0.000000618   -0.000001210    0.000000560
     12        1          -0.000001055    0.000001220    0.000000330
     13        1           0.000000017    0.000002104    0.000002825
     14        1           0.000000791   -0.000000175    0.000000339
     15        1          -0.000002335    0.000001241    0.000002595
     16        1          -0.000001574    0.000004604    0.000005925
     17        1          -0.000000106   -0.000001222   -0.000000848
     18        1           0.000009081    0.000023869   -0.000003574
     19        8          -0.000000891   -0.000004743   -0.000008103
     20        8           0.000000883    0.000002739    0.000008903
 -------------------------------------------------------------------
 Cartesian Forces:  Max     0.000023869 RMS     0.000006594
 IRC-IRC-IRC-IRC-IRC-IRC-IRC-IRC-IRC-IRC-IRC-IRC-IRC-IRC-IRC-IRC-IRC-IRC
          ******** Start new reaction path calculation ********
 Supplied step size of   0.1000 bohr.
    Integration on MW PES will use step size of   0.2517 sqrt(amu)*bohr.
 Point Number:   0          Path Number:   1
 Calculating another point on the path.
 IRC-IRC-IRC-IRC-IRC-IRC-IRC-IRC-IRC-IRC-IRC-IRC-IRC-IRC-IRC-IRC-IRC-IRC
                          Input orientation:                          
 ---------------------------------------------------------------------
 Center     Atomic      Atomic             Coordinates (Angstroms)
 Number     Number       Type             X           Y           Z
 ---------------------------------------------------------------------
      1          6           0       -2.687534    1.408557    0.643507
      2          6           0       -1.928224    0.142750    0.283681
      3          8           0       -2.700351   -0.706088   -0.553620
      4          6           0       -0.639851    0.452602   -0.459453
      5          6           0        0.149835   -0.806696   -0.884359
      6          6           0        0.617305   -1.620313    0.242551
      7          8           0        1.645260   -1.293786    0.963296
      8          1           0       -3.608357    1.170831    1.181685
      9          1           0       -2.950240    1.961951   -0.260052
     10          1           0       -2.084410    2.052994    1.285322
     11          1           0       -1.676835   -0.393649    1.210937
     12          1           0       -3.541527   -0.878079   -0.128446
     13          1           0       -0.876650    1.018512   -1.363463
     14          1           0       -0.015463    1.092603    0.165334
     15          1           0        1.031298   -0.458007   -1.448627
     16          1           0       -0.485259   -1.415920   -1.526416
     17          1           0        0.112675   -2.523081    0.567093
     18          1           0        1.961753   -0.353370    0.806443
     19          8           0        2.509012    1.160823    0.461514
     20          8           0        2.677991    1.076154   -0.771457
 ---------------------------------------------------------------------
                    Distance matrix (angstroms):
                    1          2          3          4          5
     1  C    0.000000
     2  C    1.519307   0.000000
     3  O    2.430020   1.420485   0.000000
     4  C    2.514632   1.519263   2.365817   0.000000
     5  C    3.910548   2.565949   2.871075   1.545957   0.000000
     6  C    4.500753   3.096740   3.532214   2.523931   1.466434
     7  O    5.116446   3.910920   4.640124   3.208709   2.426393
     8  H    1.092732   2.164765   2.712670   3.467162   4.722622
     9  H    1.091640   2.156306   2.695748   2.766910   4.203050
    10  H    1.091322   2.162570   3.372480   2.773489   4.228143
    11  H    2.142763   1.100329   2.063701   2.140486   2.810267
    12  H    2.560062   1.953122   0.958087   3.209362   3.768641
    13  H    2.731184   2.141460   2.637418   1.092503   2.148161
    14  H    2.732844   2.138897   3.310711   1.090789   2.176354
    15  H    4.657338   3.481461   3.845489   2.144858   1.103159
    16  H    4.187630   2.790708   2.521274   2.157240   1.089374
    17  H    4.827502   3.369309   3.531370   3.236477   2.248126
    18  H    4.974616   3.956177   4.869229   3.003402   2.519397
    19  O    5.205630   4.556002   5.626127   3.356351   3.353836
    20  O    5.558910   4.816822   5.670132   3.390316   3.154274
                    6          7          8          9         10
     6  C    0.000000
     7  O    1.297221   0.000000
     8  H    5.150600   5.807109   0.000000
     9  H    5.080610   5.763247   1.771325   0.000000
    10  H    4.677587   5.021461   1.763906   1.773734   0.000000
    11  H    2.775888   3.450781   2.485806   3.055196   2.481474
    12  H    4.240806   5.316716   2.432887   2.903912   3.565546
    13  H    3.431411   4.137699   3.736737   2.531278   3.089482
    14  H    2.786803   3.014895   3.734698   3.090248   2.541114
    15  H    2.093425   2.625423   5.576563   4.808487   4.846363
    16  H    2.094438   3.279130   4.876354   4.369189   4.743049
    17  H    1.083960   2.004236   5.279089   5.493735   5.126743
    18  H    1.931491   1.004565   5.787065   5.534058   4.731950
    19  O    3.370640   2.650085   6.159622   5.564701   4.751226
    20  O    3.541973   3.113280   6.583456   5.720416   5.278733
                   11         12         13         14         15
    11  H    0.000000
    12  H    2.346422   0.000000
    13  H    3.043359   3.496269   0.000000
    14  H    2.462191   4.050064   1.756233   0.000000
    15  H    3.796236   4.778082   2.414048   2.470824   0.000000
    16  H    3.155629   3.403582   2.471072   3.061930   1.795437
    17  H    2.855059   4.067308   4.153154   3.640192   3.028453
    18  H    3.661224   5.606731   3.827151   2.532043   2.441727
    19  O    4.527618   6.412035   3.848831   2.542705   2.907384
    20  O    5.005469   6.550946   3.604063   2.851762   2.350277
                   16         17         18         19         20
    16  H    0.000000
    17  H    2.442562   0.000000
    18  H    3.543883   2.860773   0.000000
    19  O    4.422344   4.395989   1.646587   0.000000
    20  O    4.097139   4.618122   2.246398   1.247374   0.000000
 Symmetry turned off by external request.
 Stoichiometry    C5H11O4(2)
 Framework group  C1[X(C5H11O4)]
 Deg. of freedom    54
 Full point group                 C1      NOp   1
 Rotational constants (GHZ):           2.2465825           0.8053330           0.6957820
 Standard basis: def2TZVP (5D, 7F)
   345 basis functions,   547 primitive gaussians,   390 cartesian basis functions
    37 alpha electrons       36 beta electrons
       nuclear repulsion energy       474.7685885259 Hartrees.
 NAtoms=   20 NActive=   20 NUniq=   20 SFac= 1.00D+00 NAtFMM=   60 NAOKFM=F Big=F
 Integral buffers will be    131072 words long.
 Raffenetti 2 integral format.
 Two-electron integral symmetry is turned off.
 Nuclear repulsion after empirical dispersion term =      474.7562062319 Hartrees.
 One-electron integrals computed using PRISM.
   1 Symmetry operations used in ECPInt.
 ECPInt:  NShTT=   10296 NPrTT=   30612 LenC2=    9827 LenP2D=   22629.
 LDataN:  DoStor=T MaxTD1= 6 Len=  172
 NBasis=   345 RedAO= T EigKep=  1.50D-04  NBF=   345
 NBsUse=   345 1.00D-06 EigRej= -1.00D+00 NBFU=   345
 Initial guess from the checkpoint file:  "/tmp/24487558/Gau-315327.chk"
 B after Tr=    -0.155542    0.016387    0.006296
         Rot=    1.000000    0.000108    0.000002   -0.000047 Ang=   0.01 deg.
 Initial guess <Sx>= 0.0000 <Sy>= 0.0000 <Sz>= 0.5000 <S**2>= 1.4071 S= 0.7873
 ExpMin= 9.52D-02 ExpMax= 2.70D+04 ExpMxC= 9.22D+02 IAcc=3 IRadAn=         5 AccDes= 0.00D+00
 Harris functional with IExCor= 4639 and IRadAn=       5 diagonalized for initial guess.
 HarFok:  IExCor= 4639 AccDes= 0.00D+00 IRadAn=         5 IDoV= 1 UseB2=F ITyADJ=14
 ICtDFT=  3500011 ScaDFX=  1.000000  1.000000  1.000000  1.000000
 FoFCou: FMM=F IPFlag=           0 FMFlag=      100000 FMFlg1=           0
         NFxFlg=           0 DoJE=T BraDBF=F KetDBF=T FulRan=T
         wScrn=  0.000000 ICntrl=       500 IOpCl=  0 I1Cent=   200000004 NGrid=           0
         NMat0=    1 NMatS0=      1 NMatT0=    0 NMatD0=    1 NMtDS0=    0 NMtDT0=    0
 Symmetry not used in FoFCou.
 Requested convergence on RMS density matrix=1.00D-08 within  32 cycles.
 Requested convergence on MAX density matrix=1.00D-06.
 Requested convergence on             energy=1.00D-06.
 No special actions if energy rises.
 Integral accuracy reduced to 1.0D-05 until final iterations.
 Initial convergence to 1.0D-05 achieved.  Increase integral accuracy.
 SCF Done:  E(UwB97XD) =  -497.908062979     A.U. after   24 cycles
            NFock= 24  Conv=0.50D-08     -V/T= 2.0043
 <Sx>= 0.0000 <Sy>= 0.0000 <Sz>= 0.5000 <S**2>= 1.2471 S= 0.7236
 <L.S>=  0.00000000000    
 Annihilation of the first spin contaminant:
 S**2 before annihilation     1.2471,   after     0.7614
 QCSCF skips out because SCF is already converged.
 DoSCS=F DFT=T ScalE2(SS,OS)=  1.000000  1.000000
 Range of M.O.s used for correlation:     1   345
 NBasis=   345 NAE=    37 NBE=    36 NFC=     0 NFV=     0
 NROrb=    345 NOA=    37 NOB=    36 NVA=   308 NVB=   309

 **** Warning!!: The largest alpha MO coefficient is  0.16333060D+02


 **** Warning!!: The largest beta MO coefficient is  0.16209701D+02

 Symmetrizing basis deriv contribution to polar:
 IMax=3 JMax=2 DiffMx= 0.00D+00
   1 Symmetry operations used in ECPInt.
 ECPInt:  NShTT=   10296 NPrTT=   30612 LenC2=    9827 LenP2D=   22629.
 LDataN:  DoStor=T MaxTD1= 7 Len=  274
 Calling FoFJK, ICntrl=      2127 FMM=F ISym2X=0 I1Cent= 0 IOpClX= 1 NMat=1 NMatS=1 NMatT=0.
 -------------------------------------------------------------------
 Center     Atomic                   Forces (Hartrees/Bohr)
 Number     Number              X              Y              Z
 -------------------------------------------------------------------
      1        6           0.000105647    0.000038739   -0.000085926
      2        6          -0.000038951   -0.000038837    0.000032327
      3        8           0.000215859   -0.000269957    0.000163436
      4        6           0.000028845   -0.000015159    0.000352947
      5        6           0.000599609    0.000008700   -0.000306188
      6        6           0.002466417    0.002660145    0.001393711
      7        8          -0.002233194   -0.000257092   -0.002480948
      8        1           0.000011787   -0.000004909   -0.000016230
      9        1           0.000021523   -0.000008833   -0.000007834
     10        1           0.000006596   -0.000002021   -0.000013127
     11        1          -0.000036502    0.000009875    0.000054736
     12        1          -0.000016679    0.000064066   -0.000066286
     13        1           0.000064695   -0.000124321   -0.000015992
     14        1           0.000162202   -0.000004044   -0.000050415
     15        1           0.000084562    0.000114547    0.000290858
     16        1           0.000054597   -0.000097170    0.000095100
     17        1           0.000066656   -0.000005566    0.000087621
     18        1           0.001446453    0.003820515   -0.000729629
     19        8          -0.002453222   -0.004677697    0.004465919
     20        8          -0.000556899   -0.001210982   -0.003164079
 -------------------------------------------------------------------
 Cartesian Forces:  Max     0.004677697 RMS     0.001317282
 IRC-IRC-IRC-IRC-IRC-IRC-IRC-IRC-IRC-IRC-IRC-IRC-IRC-IRC-IRC-IRC-IRC-IRC
 Pt  1 Step number   1 out of a maximum of  20
 Modified Bulirsch-Stoer Extrapolation Cycles:
    EPS =    0.000010000000000
      PEZero:  N= 2 I= 1 D=  6.56D-04 Err=  9.93D-04
      PEZero:  N= 3 I= 2 D=  6.56D-04 Err=  6.55D-04
      PEZero:  N= 3 I= 1 D=  1.31D-03 Err=  1.06D-05
      PEZero:  N= 4 I= 3 D=  3.28D-04 Err=  4.88D-04
      PEZero:  N= 4 I= 2 D=  9.83D-04 Err=  4.23D-06
      PEZero:  N= 4 I= 1 D=  1.64D-03 Err=  1.28D-06
 Maximum DWI energy   std dev =  0.000020168 at pt    31
 Maximum DWI gradient std dev =  0.687155268 at pt     5
 CORRECTOR INTEGRATION CONVERGENCE:
   Recorrection delta-x convergence threshold:    0.010000
   Delta-x Convergence NOT Met
 IRC-IRC-IRC-IRC-IRC-IRC-IRC-IRC-IRC-IRC-IRC-IRC-IRC-IRC-IRC-IRC-IRC-IRC
                          Input orientation:                          
 ---------------------------------------------------------------------
 Center     Atomic      Atomic             Coordinates (Angstroms)
 Number     Number       Type             X           Y           Z
 ---------------------------------------------------------------------
      1          6           0       -2.687563    1.408554    0.643589
      2          6           0       -1.928320    0.142786    0.283641
      3          8           0       -2.700465   -0.705975   -0.553670
      4          6           0       -0.639930    0.452628   -0.459315
      5          6           0        0.149637   -0.807008   -0.884384
      6          6           0        0.618080   -1.620686    0.242941
      7          8           0        1.643977   -1.295163    0.963516
      8          1           0       -3.608357    1.170707    1.181713
      9          1           0       -2.950239    1.961928   -0.259969
     10          1           0       -2.084421    2.052961    1.285374
     11          1           0       -1.677056   -0.393618    1.211047
     12          1           0       -3.541551   -0.878208   -0.128460
     13          1           0       -0.876201    1.017845   -1.363742
     14          1           0       -0.014608    1.092359    0.164834
     15          1           0        1.031872   -0.457675   -1.447038
     16          1           0       -0.485655   -1.416493   -1.525906
     17          1           0        0.112803   -2.524213    0.566230
     18          1           0        1.963904   -0.347762    0.806979
     19          8           0        2.509332    1.161940    0.462402
     20          8           0        2.678797    1.076794   -0.773007
 ---------------------------------------------------------------------
                    Distance matrix (angstroms):
                    1          2          3          4          5
     1  C    0.000000
     2  C    1.519270   0.000000
     3  O    2.429985   1.420455   0.000000
     4  C    2.514557   1.519189   2.365812   0.000000
     5  C    3.910642   2.565988   2.871003   1.546215   0.000000
     6  C    4.501566   3.097684   3.533274   2.524754   1.467096
     7  O    5.116120   3.910401   4.639307   3.208653   2.426125
     8  H    1.092707   2.164643   2.712518   3.467011   4.722566
     9  H    1.091623   2.156179   2.695618   2.766813   4.203110
    10  H    1.091296   2.162546   3.372435   2.773366   4.228272
    11  H    2.142652   1.100430   2.063773   2.140531   2.810432
    12  H    2.560202   1.953143   0.958067   3.209360   3.768468
    13  H    2.731861   2.141624   2.637368   1.092375   2.147608
    14  H    2.733839   2.139650   3.311206   1.090801   2.176104
    15  H    4.657010   3.481170   3.845790   2.144568   1.103157
    16  H    4.187601   2.790537   2.521005   2.157551   1.089320
    17  H    4.828529   3.370300   3.531946   3.237272   2.248205
    18  H    4.974685   3.957768   4.871963   3.004010   2.522535
    19  O    5.205898   4.556686   5.627033   3.357163   3.355406
    20  O    5.560093   4.818133   5.671229   3.391451   3.155594
                    6          7          8          9         10
     6  C    0.000000
     7  O    1.295244   0.000000
     8  H    5.151304   5.806474   0.000000
     9  H    5.081432   5.763019   1.771326   0.000000
    10  H    4.678233   5.021402   1.763943   1.773700   0.000000
    11  H    2.776793   3.450118   2.485537   3.055075   2.481374
    12  H    4.241667   5.315634   2.432913   2.904017   3.565656
    13  H    3.431640   4.137323   3.737296   2.532043   3.090158
    14  H    2.786935   3.014807   3.735668   3.091042   2.542144
    15  H    2.092809   2.624277   5.576171   4.808412   4.845684
    16  H    2.094933   3.278303   4.876071   4.369268   4.743043
    17  H    1.084519   2.003221   5.279989   5.494570   5.127912
    18  H    1.936419   1.012140   5.787596   5.533702   4.730885
    19  O    3.371648   2.652793   6.159838   5.564955   4.751187
    20  O    3.543318   3.116496   6.584683   5.721252   5.279970
                   11         12         13         14         15
    11  H    0.000000
    12  H    2.346369   0.000000
    13  H    3.043540   3.496431   0.000000
    14  H    2.463011   4.050739   1.756258   0.000000
    15  H    3.795763   4.778253   2.413471   2.468979   0.000000
    16  H    3.155412   3.403103   2.470795   3.061833   1.796786
    17  H    2.856365   4.067705   4.153203   3.641009   3.027956
    18  H    3.663600   5.609497   3.826632   2.529982   2.441589
    19  O    4.528364   6.412839   3.849338   2.542373   2.907233
    20  O    5.007199   6.552114   3.604228   2.852055   2.349740
                   16         17         18         19         20
    16  H    0.000000
    17  H    2.441767   0.000000
    18  H    3.547517   2.867312   0.000000
    19  O    4.423984   4.397938   1.641775   0.000000
    20  O    4.098426   4.620079   2.244279   1.249881   0.000000
 Symmetry turned off by external request.
 Stoichiometry    C5H11O4(2)
 Framework group  C1[X(C5H11O4)]
 Deg. of freedom    54
 Full point group                 C1      NOp   1
 Rotational constants (GHZ):           2.2446601           0.8051737           0.6955843
 Standard basis: def2TZVP (5D, 7F)
   345 basis functions,   547 primitive gaussians,   390 cartesian basis functions
    37 alpha electrons       36 beta electrons
       nuclear repulsion energy       474.6556792603 Hartrees.
 NAtoms=   20 NActive=   20 NUniq=   20 SFac= 1.00D+00 NAtFMM=   60 NAOKFM=F Big=F
 Integral buffers will be    131072 words long.
 Raffenetti 2 integral format.
 Two-electron integral symmetry is turned off.
 Nuclear repulsion after empirical dispersion term =      474.6432982093 Hartrees.
 One-electron integrals computed using PRISM.
   1 Symmetry operations used in ECPInt.
 ECPInt:  NShTT=   10296 NPrTT=   30612 LenC2=    9826 LenP2D=   22628.
 LDataN:  DoStor=T MaxTD1= 6 Len=  172
 NBasis=   345 RedAO= T EigKep=  1.50D-04  NBF=   345
 NBsUse=   345 1.00D-06 EigRej= -1.00D+00 NBFU=   345
 Initial guess from the checkpoint file:  "/tmp/24487558/Gau-315327.chk"
 B after Tr=     0.000093    0.000087    0.000016
         Rot=    1.000000    0.000019    0.000001   -0.000012 Ang=   0.00 deg.
 Initial guess <Sx>= 0.0000 <Sy>= 0.0000 <Sz>= 0.5000 <S**2>= 1.2464 S= 0.7233
 ExpMin= 9.52D-02 ExpMax= 2.70D+04 ExpMxC= 9.22D+02 IAcc=3 IRadAn=         5 AccDes= 0.00D+00
 Harris functional with IExCor= 4639 and IRadAn=       5 diagonalized for initial guess.
 HarFok:  IExCor= 4639 AccDes= 0.00D+00 IRadAn=         5 IDoV= 1 UseB2=F ITyADJ=14
 ICtDFT=  3500011 ScaDFX=  1.000000  1.000000  1.000000  1.000000
 FoFCou: FMM=F IPFlag=           0 FMFlag=      100000 FMFlg1=           0
         NFxFlg=           0 DoJE=T BraDBF=F KetDBF=T FulRan=T
         wScrn=  0.000000 ICntrl=       500 IOpCl=  0 I1Cent=   200000004 NGrid=           0
         NMat0=    1 NMatS0=      1 NMatT0=    0 NMatD0=    1 NMtDS0=    0 NMtDT0=    0
 Symmetry not used in FoFCou.
 Requested convergence on RMS density matrix=1.00D-08 within  32 cycles.
 Requested convergence on MAX density matrix=1.00D-06.
 Requested convergence on             energy=1.00D-06.
 No special actions if energy rises.
 Integral accuracy reduced to 1.0D-05 until final iterations.
 Initial convergence to 1.0D-05 achieved.  Increase integral accuracy.
 SCF Done:  E(UwB97XD) =  -497.908108969     A.U. after   20 cycles
            NFock= 20  Conv=0.26D-08     -V/T= 2.0043
 <Sx>= 0.0000 <Sy>= 0.0000 <Sz>= 0.5000 <S**2>= 1.2179 S= 0.7116
 <L.S>=  0.00000000000    
 Annihilation of the first spin contaminant:
 S**2 before annihilation     1.2179,   after     0.7603
 QCSCF skips out because SCF is already converged.
 DoSCS=F DFT=T ScalE2(SS,OS)=  1.000000  1.000000
 Range of M.O.s used for correlation:     1   345
 NBasis=   345 NAE=    37 NBE=    36 NFC=     0 NFV=     0
 NROrb=    345 NOA=    37 NOB=    36 NVA=   308 NVB=   309

 **** Warning!!: The largest alpha MO coefficient is  0.16320084D+02


 **** Warning!!: The largest beta MO coefficient is  0.15985659D+02

 Symmetrizing basis deriv contribution to polar:
 IMax=3 JMax=2 DiffMx= 0.00D+00
   1 Symmetry operations used in ECPInt.
 ECPInt:  NShTT=   10296 NPrTT=   30612 LenC2=    9826 LenP2D=   22628.
 LDataN:  DoStor=T MaxTD1= 7 Len=  274
 Calling FoFJK, ICntrl=      2127 FMM=F ISym2X=0 I1Cent= 0 IOpClX= 1 NMat=1 NMatS=1 NMatT=0.
 -------------------------------------------------------------------
 Center     Atomic                   Forces (Hartrees/Bohr)
 Number     Number              X              Y              Z
 -------------------------------------------------------------------
      1        6           0.000135619    0.000047704   -0.000096463
      2        6          -0.000084166   -0.000030346    0.000080954
      3        8           0.000287394   -0.000329283    0.000175273
      4        6           0.000175287   -0.000112741    0.000577254
      5        6           0.000890714   -0.000290953   -0.000080742
      6        6           0.003269988    0.003677717    0.001911532
      7        8          -0.002438587    0.002208765   -0.003942600
      8        1           0.000008585   -0.000006158   -0.000015063
      9        1           0.000020205   -0.000006102   -0.000010640
     10        1           0.000009948   -0.000000452   -0.000011148
     11        1          -0.000060101    0.000022260    0.000057558
     12        1          -0.000052520    0.000074498   -0.000067110
     13        1           0.000081801   -0.000154235   -0.000044835
     14        1           0.000157889   -0.000024542   -0.000092746
     15        1           0.000173275    0.000178645    0.000330641
     16        1           0.000078534   -0.000138089    0.000088708
     17        1           0.000163904    0.000078365    0.000054860
     18        1           0.000950986    0.002352894   -0.000531056
     19        8          -0.003143604   -0.006158531    0.005560667
     20        8          -0.000625153   -0.001389416   -0.003945043
 -------------------------------------------------------------------
 Cartesian Forces:  Max     0.006158531 RMS     0.001630110
 IRC-IRC-IRC-IRC-IRC-IRC-IRC-IRC-IRC-IRC-IRC-IRC-IRC-IRC-IRC-IRC-IRC-IRC
 Error in corrector energy =           0.0000141848
 Magnitude of corrector gradient =     0.0119724867
 Magnitude of analytic gradient =      0.0126267806
 Magnitude of difference =             0.0028913701
 Angle between gradients (degrees)=   13.1531
 Pt  1 Step number   2 out of a maximum of  20
 Modified Bulirsch-Stoer Extrapolation Cycles:
    EPS =    0.000010000000000
      PEZero:  N= 2 I= 1 D=  6.56D-04 Err=  9.91D-04
      PEZero:  N= 3 I= 2 D=  6.56D-04 Err=  6.52D-04
      PEZero:  N= 3 I= 1 D=  1.31D-03 Err=  1.21D-05
      PEZero:  N= 4 I= 3 D=  3.28D-04 Err=  4.85D-04
      PEZero:  N= 4 I= 2 D=  9.83D-04 Err=  5.14D-06
      PEZero:  N= 4 I= 1 D=  1.64D-03 Err=  1.07D-06
 Maximum DWI energy   std dev =  0.000024152 at pt     1
 Maximum DWI gradient std dev =  0.855974439 at pt     5
 CORRECTOR INTEGRATION CONVERGENCE:
   Recorrection delta-x convergence threshold:    0.010000
   Delta-x Convergence NOT Met
 IRC-IRC-IRC-IRC-IRC-IRC-IRC-IRC-IRC-IRC-IRC-IRC-IRC-IRC-IRC-IRC-IRC-IRC
                          Input orientation:                          
 ---------------------------------------------------------------------
 Center     Atomic      Atomic             Coordinates (Angstroms)
 Number     Number       Type             X           Y           Z
 ---------------------------------------------------------------------
      1          6           0       -2.687583    1.408542    0.643635
      2          6           0       -1.928346    0.142794    0.283612
      3          8           0       -2.700514   -0.705933   -0.553690
      4          6           0       -0.639961    0.452673   -0.459284
      5          6           0        0.149477   -0.807105   -0.884420
      6          6           0        0.618251   -1.620958    0.243077
      7          8           0        1.643497   -1.295815    0.963625
      8          1           0       -3.608353    1.170643    1.181769
      9          1           0       -2.950311    1.961917   -0.259900
     10          1           0       -2.084452    2.052950    1.285417
     11          1           0       -1.677015   -0.393667    1.211003
     12          1           0       -3.541365   -0.878635   -0.128197
     13          1           0       -0.876114    1.017879   -1.363715
     14          1           0       -0.014510    1.092291    0.164845
     15          1           0        1.031741   -0.458000   -1.447095
     16          1           0       -0.486171   -1.416461   -1.525721
     17          1           0        0.112772   -2.525071    0.565318
     18          1           0        1.964109   -0.345171    0.807630
     19          8           0        2.509465    1.162354    0.462665
     20          8           0        2.679083    1.077025   -0.773485
 ---------------------------------------------------------------------
                    Distance matrix (angstroms):
                    1          2          3          4          5
     1  C    0.000000
     2  C    1.519268   0.000000
     3  O    2.429970   1.420442   0.000000
     4  C    2.514533   1.519163   2.365832   0.000000
     5  C    3.910621   2.565922   2.870901   1.546283   0.000000
     6  C    4.501872   3.098002   3.533598   2.525144   1.467431
[...]
    14  H    2.739139   2.142938   3.311287   1.090506   2.168337
    15  H    4.655317   3.479012   3.840348   2.141438   1.091231
    16  H    4.196762   2.798301   2.527768   2.162210   1.089288
    17  H    4.801621   3.342343   3.501212   3.207057   2.234721
    18  H    5.045309   4.162555   5.150627   3.087973   2.791430
    19  O    5.187532   4.529353   5.598521   3.338500   3.325135
    20  O    5.569122   4.828030   5.674534   3.397395   3.153392
                    6          7          8          9         10
     6  C    0.000000
     7  O    1.207737   0.000000
     8  H    5.164864   5.778620   0.000000
     9  H    5.095048   5.732565   1.771411   0.000000
    10  H    4.676897   4.999262   1.764271   1.773941   0.000000
    11  H    2.796735   3.429705   2.478490   3.052382   2.478874
    12  H    4.262947   5.267983   2.446934   2.920981   3.576005
    13  H    3.440204   4.100390   3.735732   2.532373   3.088769
    14  H    2.771047   2.985479   3.740236   3.096346   2.547496
    15  H    2.090343   2.589711   5.573353   4.807500   4.843682
    16  H    2.125502   3.230255   4.884111   4.380200   4.750138
    17  H    1.103837   1.982396   5.253113   5.465436   5.103958
    18  H    2.422169   1.630570   5.918236   5.537522   4.712077
    19  O    3.283348   2.599681   6.135706   5.557920   4.734387
    20  O    3.525149   3.128939   6.594373   5.726218   5.290789
                   11         12         13         14         15
    11  H    0.000000
    12  H    2.335990   0.000000
    13  H    3.043844   3.498645   0.000000
    14  H    2.470007   4.053226   1.754727   0.000000
    15  H    3.799124   4.768303   2.411687   2.462607   0.000000
    16  H    3.163966   3.400826   2.478068   3.062431   1.790326
    17  H    2.838552   4.021299   4.122019   3.616574   3.007297
    18  H    3.974047   5.906229   3.802314   2.451576   2.540863
    19  O    4.494372   6.378745   3.847257   2.522322   2.896554
    20  O    5.027587   6.555506   3.603229   2.858001   2.350833
                   16         17         18         19         20
    16  H    0.000000
    17  H    2.406672   0.000000
    18  H    3.852461   3.443881   0.000000
    19  O    4.397178   4.341739   0.972579   0.000000
    20  O    4.096944   4.624799   1.800694   1.311142   0.000000
 Symmetry turned off by external request.
 Stoichiometry    C5H11O4(2)
 Framework group  C1[X(C5H11O4)]
 Deg. of freedom    54
 Full point group                 C1      NOp   1
 Rotational constants (GHZ):           2.2672093           0.8064463           0.6997316
 Standard basis: def2TZVP (5D, 7F)
   345 basis functions,   547 primitive gaussians,   390 cartesian basis functions
    37 alpha electrons       36 beta electrons
       nuclear repulsion energy       475.6470693239 Hartrees.
 NAtoms=   20 NActive=   20 NUniq=   20 SFac= 1.00D+00 NAtFMM=   60 NAOKFM=F Big=F
 Integral buffers will be    131072 words long.
 Raffenetti 2 integral format.
 Two-electron integral symmetry is turned off.
 Nuclear repulsion after empirical dispersion term =      475.6347046681 Hartrees.
 One-electron integrals computed using PRISM.
   1 Symmetry operations used in ECPInt.
 ECPInt:  NShTT=   10296 NPrTT=   30612 LenC2=    9825 LenP2D=   22648.
 LDataN:  DoStor=T MaxTD1= 6 Len=  172
 NBasis=   345 RedAO= T EigKep=  1.51D-04  NBF=   345
 NBsUse=   345 1.00D-06 EigRej= -1.00D+00 NBFU=   345
 Initial guess from the checkpoint file:  "/tmp/24487558/Gau-315327.chk"
 B after Tr=    -0.000800   -0.002010    0.001011
         Rot=    1.000000    0.000506   -0.000297    0.000051 Ang=   0.07 deg.
 Initial guess <Sx>= 0.0000 <Sy>= 0.0000 <Sz>= 0.5000 <S**2>= 0.7543 S= 0.5021
 ExpMin= 9.52D-02 ExpMax= 2.70D+04 ExpMxC= 9.22D+02 IAcc=3 IRadAn=         5 AccDes= 0.00D+00
 Harris functional with IExCor= 4639 and IRadAn=       5 diagonalized for initial guess.
 HarFok:  IExCor= 4639 AccDes= 0.00D+00 IRadAn=         5 IDoV= 1 UseB2=F ITyADJ=14
 ICtDFT=  3500011 ScaDFX=  1.000000  1.000000  1.000000  1.000000
 FoFCou: FMM=F IPFlag=           0 FMFlag=      100000 FMFlg1=           0
         NFxFlg=           0 DoJE=T BraDBF=F KetDBF=T FulRan=T
         wScrn=  0.000000 ICntrl=       500 IOpCl=  0 I1Cent=   200000004 NGrid=           0
         NMat0=    1 NMatS0=      1 NMatT0=    0 NMatD0=    1 NMtDS0=    0 NMtDT0=    0
 Symmetry not used in FoFCou.
 Requested convergence on RMS density matrix=1.00D-08 within  32 cycles.
 Requested convergence on MAX density matrix=1.00D-06.
 Requested convergence on             energy=1.00D-06.
 No special actions if energy rises.
 Integral accuracy reduced to 1.0D-05 until final iterations.
 Initial convergence to 1.0D-05 achieved.  Increase integral accuracy.
 SCF Done:  E(UwB97XD) =  -497.957529530     A.U. after   16 cycles
            NFock= 16  Conv=0.95D-08     -V/T= 2.0041
 <Sx>= 0.0000 <Sy>= 0.0000 <Sz>= 0.5000 <S**2>= 0.7543 S= 0.5021
 <L.S>=  0.00000000000    
 Annihilation of the first spin contaminant:
 S**2 before annihilation     0.7543,   after     0.7500
 QCSCF skips out because SCF is already converged.
 DoSCS=F DFT=T ScalE2(SS,OS)=  1.000000  1.000000
 Range of M.O.s used for correlation:     1   345
 NBasis=   345 NAE=    37 NBE=    36 NFC=     0 NFV=     0
 NROrb=    345 NOA=    37 NOB=    36 NVA=   308 NVB=   309

 **** Warning!!: The largest alpha MO coefficient is  0.14997122D+02


 **** Warning!!: The largest beta MO coefficient is  0.15052574D+02

 Symmetrizing basis deriv contribution to polar:
 IMax=3 JMax=2 DiffMx= 0.00D+00
   1 Symmetry operations used in ECPInt.
 ECPInt:  NShTT=   10296 NPrTT=   30612 LenC2=    9825 LenP2D=   22648.
 LDataN:  DoStor=T MaxTD1= 7 Len=  274
 Calling FoFJK, ICntrl=      2127 FMM=F ISym2X=0 I1Cent= 0 IOpClX= 1 NMat=1 NMatS=1 NMatT=0.
 -------------------------------------------------------------------
 Center     Atomic                   Forces (Hartrees/Bohr)
 Number     Number              X              Y              Z
 -------------------------------------------------------------------
      1        6           0.000047414    0.000048086   -0.000229729
      2        6           0.000073505   -0.000586840    0.000698455
      3        8           0.000429092   -0.000430354    0.000345194
      4        6          -0.000111262   -0.002315903   -0.000723891
      5        6           0.000366257    0.000996453   -0.001015445
      6        6          -0.008934663   -0.001229734    0.000551838
      7        8           0.002916941   -0.001835892    0.003643200
      8        1          -0.000036831    0.000098566   -0.000007846
      9        1           0.000040945    0.000021801   -0.000045537
     10        1           0.000005099    0.000009986    0.000012081
     11        1          -0.000033220   -0.000052242   -0.000015889
     12        1          -0.000328844    0.000183809    0.000014447
     13        1          -0.000500355    0.000247124    0.000160008
     14        1          -0.000447745   -0.000031497    0.000243712
     15        1          -0.000287120   -0.000453717   -0.001626812
     16        1           0.000206374   -0.000000081   -0.000098048
     17        1           0.000046212   -0.001226176   -0.001692096
     18        1          -0.004223392   -0.016845685    0.008513039
     19        8           0.008545447    0.018995790   -0.008050835
     20        8           0.002226147    0.004406505   -0.000675846
 -------------------------------------------------------------------
 Cartesian Forces:  Max     0.018995790 RMS     0.004127046
 IRC-IRC-IRC-IRC-IRC-IRC-IRC-IRC-IRC-IRC-IRC-IRC-IRC-IRC-IRC-IRC-IRC-IRC
 Error in corrector energy =          -0.0014651805
 Magnitude of corrector gradient =     0.0080700664
 Magnitude of analytic gradient =      0.0319679584
 Magnitude of difference =             0.0346136135
 Angle between gradients (degrees)=  102.4261
 Pt  7 Step number  19 out of a maximum of  20
 Modified Bulirsch-Stoer Extrapolation Cycles:
    EPS =    0.000010000000000
      PEZero:  N= 2 I= 1 D=  1.25D-03 Err=  5.48D-04
      PEZero:  N= 3 I= 2 D=  1.25D-03 Err=  3.62D-04
      PEZero:  N= 3 I= 1 D=  2.50D-03 Err=  4.72D-06
 Maximum DWI energy   std dev =  0.000365476 at pt    32
 Maximum DWI gradient std dev =  1.247388766 at pt    48
 CORRECTOR INTEGRATION CONVERGENCE:
   Recorrection delta-x convergence threshold:    0.010000
   Delta-x Convergence NOT Met
 IRC-IRC-IRC-IRC-IRC-IRC-IRC-IRC-IRC-IRC-IRC-IRC-IRC-IRC-IRC-IRC-IRC-IRC
                          Input orientation:                          
 ---------------------------------------------------------------------
 Center     Atomic      Atomic             Coordinates (Angstroms)
 Number     Number       Type             X           Y           Z
 ---------------------------------------------------------------------
      1          6           0       -2.686884    1.408955    0.643005
      2          6           0       -1.929063    0.142211    0.285137
      3          8           0       -2.699271   -0.707215   -0.552836
      4          6           0       -0.639355    0.446417   -0.458126
      5          6           0        0.152410   -0.802370   -0.887103
      6          6           0        0.654150   -1.601496    0.272049
      7          8           0        1.615608   -1.293422    0.942331
      8          1           0       -3.608972    1.171723    1.179115
      9          1           0       -2.946021    1.963169   -0.261082
     10          1           0       -2.084243    2.051821    1.286698
     11          1           0       -1.684618   -0.391746    1.216379
     12          1           0       -3.559474   -0.843156   -0.150080
     13          1           0       -0.878342    1.007901   -1.363902
     14          1           0       -0.009561    1.088570    0.158770
     15          1           0        1.034047   -0.459898   -1.433962
     16          1           0       -0.469478   -1.429396   -1.524578
     17          1           0        0.138176   -2.548157    0.514378
     18          1           0        2.185600    0.223273    0.743694
     19          8           0        2.491217    1.115454    0.493980
     20          8           0        2.681981    1.078300   -0.798767
 ---------------------------------------------------------------------
                    Distance matrix (angstroms):
                    1          2          3          4          5
     1  C    0.000000
     2  C    1.518882   0.000000
     3  O    2.430713   1.420191   0.000000
     4  C    2.516216   1.519318   2.362856   0.000000
     5  C    3.910598   2.568834   2.872781   1.539604   0.000000
     6  C    4.512530   3.116677   3.567296   2.529873   1.494650
     7  O    5.089585   3.880418   4.604057   3.173827   2.393515
     8  H    1.092676   2.163604   2.712493   3.467744   4.723800
     9  H    1.091640   2.156025   2.697583   2.767683   4.200045
    10  H    1.091235   2.161900   3.372599   2.776587   4.227816
    11  H    2.139117   1.100943   2.063774   2.144542   2.822751
    12  H    2.542126   1.954125   0.959502   3.207022   3.784567
    13  H    2.731180   2.138402   2.629682   1.092158   2.137023
    14  H    2.739560   2.143841   3.311460   1.090671   2.166965
    15  H    4.653142   3.478198   3.843853   2.138676   1.092532
    16  H    4.203753   2.806315   2.537282   2.164451   1.089165
    17  H    4.863769   3.400605   3.546705   3.243114   2.238778
    18  H    5.015683   4.140930   5.138945   3.078073   2.800947
    19  O    5.188552   4.530970   5.599920   3.339850   3.324974
    20  O    5.568909   4.828337   5.675069   3.398027   3.153324
                    6          7          8          9         10
     6  C    0.000000
     7  O    1.211854   0.000000
     8  H    5.166016   5.781803   0.000000
     9  H    5.094339   5.732543   1.772021   0.000000
    10  H    4.677075   4.999814   1.763787   1.773737   0.000000
    11  H    2.797336   3.432145   2.479710   3.052811   2.477027
    12  H    4.302081   5.308256   2.414321   2.874736   3.552679
    13  H    3.440032   4.102997   3.734985   2.530621   3.093484
    14  H    2.773049   2.988148   3.742162   3.092571   2.550368
    15  H    2.087593   2.584521   5.572071   4.804980   4.840914
    16  H    2.126035   3.232911   4.892054   4.386249   4.757058
    17  H    1.105043   1.985021   5.321701   5.519571   5.166761
    18  H    2.428492   1.632395   5.887802   5.510929   4.676536
    19  O    3.287230   2.601998   6.138801   5.554484   4.737089
    20  O    3.527045   3.129479   6.595213   5.722456   5.292806
                   11         12         13         14         15
    11  H    0.000000
    12  H    2.363486   0.000000
    13  H    3.044166   3.476816   0.000000
    14  H    2.472992   4.053251   1.754941   0.000000
    15  H    3.797380   4.784943   2.411757   2.454315   0.000000
    16  H    3.172716   3.432346   2.476570   3.063549   1.791292
    17  H    2.909552   4.125670   4.148107   3.657057   2.993233
    18  H    3.947185   5.911174   3.800703   2.430968   2.556362
    19  O    4.497900   6.392326   3.849314   2.523287   2.884795
    20  O    5.028821   6.562663   3.605584   2.856813   2.342053
                   16         17         18         19         20
    16  H    0.000000
    17  H    2.403791   0.000000
    18  H    3.863394   3.453311   0.000000
    19  O    4.395060   4.354223   0.975574   0.000000
    20  O    4.092314   4.620225   1.832117   1.307275   0.000000
 Symmetry turned off by external request.
 Stoichiometry    C5H11O4(2)
 Framework group  C1[X(C5H11O4)]
 Deg. of freedom    54
 Full point group                 C1      NOp   1
 Rotational constants (GHZ):           2.2647230           0.8060412           0.6992010
 Standard basis: def2TZVP (5D, 7F)
   345 basis functions,   547 primitive gaussians,   390 cartesian basis functions
    37 alpha electrons       36 beta electrons
       nuclear repulsion energy       475.4725861531 Hartrees.
 NAtoms=   20 NActive=   20 NUniq=   20 SFac= 1.00D+00 NAtFMM=   60 NAOKFM=F Big=F
 Integral buffers will be    131072 words long.
 Raffenetti 2 integral format.
 Two-electron integral symmetry is turned off.
 Nuclear repulsion after empirical dispersion term =      475.4602482929 Hartrees.
 One-electron integrals computed using PRISM.
   1 Symmetry operations used in ECPInt.
 ECPInt:  NShTT=   10296 NPrTT=   30612 LenC2=    9823 LenP2D=   22635.
 LDataN:  DoStor=T MaxTD1= 6 Len=  172
 NBasis=   345 RedAO= T EigKep=  1.51D-04  NBF=   345
 NBsUse=   345 1.00D-06 EigRej= -1.00D+00 NBFU=   345
 Initial guess from the checkpoint file:  "/tmp/24487558/Gau-315327.chk"
 B after Tr=     0.000682    0.001803   -0.000960
         Rot=    1.000000   -0.000545    0.000304   -0.000028 Ang=  -0.07 deg.
 Initial guess <Sx>= 0.0000 <Sy>= 0.0000 <Sz>= 0.5000 <S**2>= 0.7543 S= 0.5021
 ExpMin= 9.52D-02 ExpMax= 2.70D+04 ExpMxC= 9.22D+02 IAcc=3 IRadAn=         5 AccDes= 0.00D+00
 Harris functional with IExCor= 4639 and IRadAn=       5 diagonalized for initial guess.
 HarFok:  IExCor= 4639 AccDes= 0.00D+00 IRadAn=         5 IDoV= 1 UseB2=F ITyADJ=14
 ICtDFT=  3500011 ScaDFX=  1.000000  1.000000  1.000000  1.000000
 FoFCou: FMM=F IPFlag=           0 FMFlag=      100000 FMFlg1=           0
         NFxFlg=           0 DoJE=T BraDBF=F KetDBF=T FulRan=T
         wScrn=  0.000000 ICntrl=       500 IOpCl=  0 I1Cent=   200000004 NGrid=           0
         NMat0=    1 NMatS0=      1 NMatT0=    0 NMatD0=    1 NMtDS0=    0 NMtDT0=    0
 Symmetry not used in FoFCou.
 Requested convergence on RMS density matrix=1.00D-08 within  32 cycles.
 Requested convergence on MAX density matrix=1.00D-06.
 Requested convergence on             energy=1.00D-06.
 No special actions if energy rises.
 Integral accuracy reduced to 1.0D-05 until final iterations.
 Initial convergence to 1.0D-05 achieved.  Increase integral accuracy.
 SCF Done:  E(UwB97XD) =  -497.957672838     A.U. after   16 cycles
            NFock= 16  Conv=0.84D-08     -V/T= 2.0041
 <Sx>= 0.0000 <Sy>= 0.0000 <Sz>= 0.5000 <S**2>= 0.7543 S= 0.5021
 <L.S>=  0.00000000000    
 Annihilation of the first spin contaminant:
 S**2 before annihilation     0.7543,   after     0.7500
 QCSCF skips out because SCF is already converged.
 DoSCS=F DFT=T ScalE2(SS,OS)=  1.000000  1.000000
 Range of M.O.s used for correlation:     1   345
 NBasis=   345 NAE=    37 NBE=    36 NFC=     0 NFV=     0
 NROrb=    345 NOA=    37 NOB=    36 NVA=   308 NVB=   309

 **** Warning!!: The largest alpha MO coefficient is  0.15133457D+02


 **** Warning!!: The largest beta MO coefficient is  0.15181612D+02

 Symmetrizing basis deriv contribution to polar:
 IMax=3 JMax=2 DiffMx= 0.00D+00
   1 Symmetry operations used in ECPInt.
 ECPInt:  NShTT=   10296 NPrTT=   30612 LenC2=    9823 LenP2D=   22635.
 LDataN:  DoStor=T MaxTD1= 7 Len=  274
 Calling FoFJK, ICntrl=      2127 FMM=F ISym2X=0 I1Cent= 0 IOpClX= 1 NMat=1 NMatS=1 NMatT=0.
 -------------------------------------------------------------------
 Center     Atomic                   Forces (Hartrees/Bohr)
 Number     Number              X              Y              Z
 -------------------------------------------------------------------
      1        6           0.000199848    0.000103456   -0.000225223
      2        6          -0.000026281   -0.000517605    0.000341435
      3        8          -0.001187177   -0.000407583    0.000898964
      4        6          -0.000428017   -0.001804157   -0.001127011
      5        6          -0.000507377    0.002548909    0.000493645
      6        6           0.001229681   -0.005267644   -0.000903585
      7        8          -0.004290683   -0.001638297    0.002685265
      8        1          -0.000016316    0.000087535    0.000002732
      9        1           0.000029131   -0.000011481   -0.000028618
     10        1          -0.000007941    0.000023896   -0.000013705
     11        1           0.000005513   -0.000078485    0.000050088
     12        1           0.001289799    0.000075215   -0.000539559
     13        1          -0.000539830    0.000432061    0.000306328
     14        1          -0.000569031   -0.000077040    0.000255558
     15        1          -0.000667107   -0.000969451   -0.001181668
     16        1          -0.000001745   -0.000009517    0.000175429
     17        1          -0.001286484    0.001205487   -0.000396272
     18        1          -0.002854377   -0.016395440    0.001597699
     19        8           0.008660532    0.022615067   -0.002012151
     20        8           0.000967864    0.000085074   -0.000379351
 -------------------------------------------------------------------
 Cartesian Forces:  Max     0.022615067 RMS     0.003985547
 IRC-IRC-IRC-IRC-IRC-IRC-IRC-IRC-IRC-IRC-IRC-IRC-IRC-IRC-IRC-IRC-IRC-IRC
 Error in corrector energy =          -0.0013099995
 Magnitude of corrector gradient =     0.0068851851
 Magnitude of analytic gradient =      0.0308719145
 Magnitude of difference =             0.0298709507
 Angle between gradients (degrees)=   75.2540
 Pt  7 Step number  20 out of a maximum of  20
 Modified Bulirsch-Stoer Extrapolation Cycles:
    EPS =    0.000010000000000
      PEZero:  N= 2 I= 1 D=  1.25D-03 Err=  3.91D-04
      PEZero:  N= 3 I= 2 D=  1.25D-03 Err=  2.58D-04
      PEZero:  N= 3 I= 1 D=  2.50D-03 Err=  3.77D-06
 Maximum DWI energy   std dev =  0.000367214 at pt    31
 Maximum DWI gradient std dev =  1.234267499 at pt    48
 CORRECTOR INTEGRATION CONVERGENCE:
   Recorrection delta-x convergence threshold:    0.010000
   Delta-x Convergence NOT Met
 Maximum number of corrector steps exceded.
 Error termination via Lnk1e in /home/gridsan/nmorgan/RMG_shared/Software/gaussian_16_c02/g16/l123.exe at Thu Dec 14 13:10:51 2023.
 Job cpu time:       0 days 13 hours 20 minutes 22.1 seconds.
 Elapsed time:       0 days  1 hours 42 minutes 32.6 seconds.
 File lengths (MBytes):  RWF=    384 Int=      0 D2E=      0 Chk=     14 Scr=      1
