 Entering Gaussian System, Link 0=g09
 Initial command:
 /cm/shared/c3ddb/gaussian/09.d01/g09/l1.exe "/scratch/users/xiaorui/g09/nBA-11021280/Gau-63106.inp" -scrdir="/scratch/users/xiaorui/g09/nBA-11021280/"
 Entering Link 1 = /cm/shared/c3ddb/gaussian/09.d01/g09/l1.exe PID=     63107.
  
 Copyright (c) 1988,1990,1992,1993,1995,1998,2003,2009,2013,
            Gaussian, Inc.  All Rights Reserved.
  
 This is part of the Gaussian(R) 09 program.  It is based on
 the Gaussian(R) 03 system (copyright 2003, Gaussian, Inc.),
 the Gaussian(R) 98 system (copyright 1998, Gaussian, Inc.),
 the Gaussian(R) 94 system (copyright 1995, Gaussian, Inc.),
 the Gaussian 92(TM) system (copyright 1992, Gaussian, Inc.),
 the Gaussian 90(TM) system (copyright 1990, Gaussian, Inc.),
 the Gaussian 88(TM) system (copyright 1988, Gaussian, Inc.),
 the Gaussian 86(TM) system (copyright 1986, Carnegie Mellon
 University), and the Gaussian 82(TM) system (copyright 1983,
 Carnegie Mellon University). Gaussian is a federally registered
 trademark of Gaussian, Inc.
  
 This software contains proprietary and confidential information,
 including trade secrets, belonging to Gaussian, Inc.
  
 This software is provided under written license and may be
 used, copied, transmitted, or stored only in accord with that
 written license.
  
 The following legend is applicable only to US Government
 contracts under FAR:
  
                    RESTRICTED RIGHTS LEGEND
  
 Use, reproduction and disclosure by the US Government is
 subject to restrictions as set forth in subparagraphs (a)
 and (c) of the Commercial Computer Software - Restricted
 Rights clause in FAR 52.227-19.
  
 Gaussian, Inc.
 340 Quinnipiac St., Bldg. 40, Wallingford CT 06492
  
  
 ---------------------------------------------------------------
 Warning -- This program may not be used in any manner that
 competes with the business of Gaussian, Inc. or will provide
 assistance to any competitor of Gaussian, Inc.  The licensee
 of this program is prohibited from giving any competitor of
 Gaussian, Inc. access to this program.  By using this program,
 the user acknowledges that Gaussian, Inc. is engaged in the
 business of creating and licensing software in the field of
 computational chemistry and represents and warrants to the
 licensee that it is not a competitor of Gaussian, Inc. and that
 it will not use this program in any manner prohibited above.
 ---------------------------------------------------------------
  

 Cite this work as:
 Gaussian 09, Revision D.01,
 M. J. Frisch, G. W. Trucks, H. B. Schlegel, G. E. Scuseria, 
 M. A. Robb, J. R. Cheeseman, G. Scalmani, V. Barone, B. Mennucci, 
 G. A. Petersson, H. Nakatsuji, M. Caricato, X. Li, H. P. Hratchian, 
 A. F. Izmaylov, J. Bloino, G. Zheng, J. L. Sonnenberg, M. Hada, 
 M. Ehara, K. Toyota, R. Fukuda, J. Hasegawa, M. Ishida, T. Nakajima, 
 Y. Honda, O. Kitao, H. Nakai, T. Vreven, J. A. Montgomery, Jr., 
 J. E. Peralta, F. Ogliaro, M. Bearpark, J. J. Heyd, E. Brothers, 
 K. N. Kudin, V. N. Staroverov, T. Keith, R. Kobayashi, J. Normand, 
 K. Raghavachari, A. Rendell, J. C. Burant, S. S. Iyengar, J. Tomasi, 
 M. Cossi, N. Rega, J. M. Millam, M. Klene, J. E. Knox, J. B. Cross, 
 V. Bakken, C. Adamo, J. Jaramillo, R. Gomperts, R. E. Stratmann, 
 O. Yazyev, A. J. Austin, R. Cammi, C. Pomelli, J. W. Ochterski, 
 R. L. Martin, K. Morokuma, V. G. Zakrzewski, G. A. Voth, 
 P. Salvador, J. J. Dannenberg, S. Dapprich, A. D. Daniels, 
 O. Farkas, J. B. Foresman, J. V. Ortiz, J. Cioslowski, 
 and D. J. Fox, Gaussian, Inc., Wallingford CT, 2013.
 
 ******************************************
 Gaussian 09:  AS64L-G09RevD.01 24-Apr-2013
                11-Nov-2019 
 ******************************************
 %chk=check.chk
 %mem=14000mb
 %NProcShared=8
 Will use up to    8 processors via shared memory.
 ---------------------------------------------
 #P irc=(calcfc, MaxPoints=20) ub3lyp/6-31g(d)
 ---------------------------------------------
 1/10=4,14=-1,18=10,26=3,38=1,42=20,44=3/1,23;
 2/12=2,17=6,18=5,29=1,40=1/2;
 3/5=1,6=6,7=1,11=2,16=1,25=1,30=1,71=2,74=-5,116=2,140=1/1,2,3;
 4//1;
 5/5=2,38=5/2;
 8/6=4,10=90,11=11/1;
 11/6=1,8=1,9=11,15=111,16=1/1,2,10;
 10/6=1,13=1/2;
 6/7=2,8=2,9=2,10=2,28=1/1;
 7/10=1,18=20,25=1/1,2,3,16;
 1/10=4,14=-1,18=10,26=3,42=20,44=3/23(2);
 2/29=1/2;
 99/5=20/99;
 2/29=1/2;
 3/5=1,6=6,7=1,11=2,16=1,25=1,30=1,71=2,74=-5,116=2,140=1/1,2,3;
 4/5=5,16=3,69=1/1;
 5/5=2,38=5/2;
 8/6=4,10=90,11=11/1;
 11/6=1,8=1,9=11,15=111,16=1/1,2,10;
 10/6=1,13=1/2;
 7/10=1,18=20,25=1/1,2,3,16;
 1/14=-1,18=10,26=3,42=20,44=3/23(-8);
 2/29=1/2;
 6/7=2,8=2,9=2,10=2,19=2,28=1/1;
 99/5=20,9=1/99;
 Leave Link    1 at Mon Nov 11 15:36:37 2019, MaxMem=  1835008000 cpu:         1.4
 (Enter /cm/shared/c3ddb/gaussian/09.d01/g09/l101.exe)
 ---
 nBA
 ---
 Symbolic Z-matrix:
 Charge =  0 Multiplicity = 1
 C                    -2.6758   -1.32323  -0.08173 
 C                    -2.21638   0.06242  -0.55062 
 C                    -1.27759   0.7452    0.44374 
 C                    -0.4047    1.75934   0.02233 
 O                     1.5012    1.0444   -0.17358 
 C                     1.63957  -0.18395   0.09666 
 C                     2.89488  -0.89198  -0.3726 
 O                     0.76959  -0.87967   0.72661 
 H                    -3.09774   0.69487  -0.73167 
 H                    -1.70347  -0.03095  -1.51784 
 H                    -0.31162  -0.11778   0.6862 
 H                    -1.67185   0.86766   1.45765 
 H                    -0.31605   2.0339   -1.02414 
 H                    -0.02109   2.49265   0.7226 
 H                    -3.20353  -1.25959   0.87792 
 H                    -3.35953  -1.77963  -0.80632 
 H                    -1.82068  -1.99463   0.05295 
 H                     3.23174  -1.59797   0.39166 
 H                     2.6672   -1.46501  -1.27951 
 H                     3.68044  -0.1681   -0.60036 
 
 NAtoms=     20 NQM=       20 NQMF=       0 NMMI=      0 NMMIF=      0
                NMic=       0 NMicF=      0.
                    Isotopes and Nuclear Properties:
 (Nuclear quadrupole moments (NQMom) in fm**2, nuclear magnetic moments (NMagM)
  in nuclear magnetons)

  Atom         1           2           3           4           5           6           7           8           9          10
 IAtWgt=          12          12          12          12          16          12          12          16           1           1
 AtmWgt=  12.0000000  12.0000000  12.0000000  12.0000000  15.9949146  12.0000000  12.0000000  15.9949146   1.0078250   1.0078250
 NucSpn=           0           0           0           0           0           0           0           0           1           1
 AtZEff=   0.0000000   0.0000000   0.0000000   0.0000000   0.0000000   0.0000000   0.0000000   0.0000000   0.0000000   0.0000000
 NQMom=    0.0000000   0.0000000   0.0000000   0.0000000   0.0000000   0.0000000   0.0000000   0.0000000   0.0000000   0.0000000
 NMagM=    0.0000000   0.0000000   0.0000000   0.0000000   0.0000000   0.0000000   0.0000000   0.0000000   2.7928460   2.7928460
 AtZNuc=   6.0000000   6.0000000   6.0000000   6.0000000   8.0000000   6.0000000   6.0000000   8.0000000   1.0000000   1.0000000

  Atom        11          12          13          14          15          16          17          18          19          20
 IAtWgt=           1           1           1           1           1           1           1           1           1           1
 AtmWgt=   1.0078250   1.0078250   1.0078250   1.0078250   1.0078250   1.0078250   1.0078250   1.0078250   1.0078250   1.0078250
 NucSpn=           1           1           1           1           1           1           1           1           1           1
 AtZEff=   0.0000000   0.0000000   0.0000000   0.0000000   0.0000000   0.0000000   0.0000000   0.0000000   0.0000000   0.0000000
 NQMom=    0.0000000   0.0000000   0.0000000   0.0000000   0.0000000   0.0000000   0.0000000   0.0000000   0.0000000   0.0000000
 NMagM=    2.7928460   2.7928460   2.7928460   2.7928460   2.7928460   2.7928460   2.7928460   2.7928460   2.7928460   2.7928460
 AtZNuc=   1.0000000   1.0000000   1.0000000   1.0000000   1.0000000   1.0000000   1.0000000   1.0000000   1.0000000   1.0000000
 Leave Link  101 at Mon Nov 11 15:36:37 2019, MaxMem=  1835008000 cpu:         0.6
 (Enter /cm/shared/c3ddb/gaussian/09.d01/g09/l123.exe)
 IRC-IRC-IRC-IRC-IRC-IRC-IRC-IRC-IRC-IRC-IRC-IRC-IRC-IRC-IRC-IRC-IRC-IRC
 ------------------------------------------------------------------------
 INPUT DATA FOR L123
 ------------------------------------------------------------------------
 GENERAL PARAMETERS:
 Follow reaction path in both directions.
 Maximum points per path      =  20
 Step size                    =   0.100 bohr
 Integration scheme           = HPC                                 
    Redo corrector integration= Yes                                 
    DWI Weight Power          =  2
    DWI will use Hessian update vectors when possible.
    Max correction cycles     =  20
 Initial Hessian              = CalcFC
 Hessian evaluation           = All updating
 Hessian updating method      = Bofill                              
 ------------------------------------------------------------------------
 IRC-IRC-IRC-IRC-IRC-IRC-IRC-IRC-IRC-IRC-IRC-IRC-IRC-IRC-IRC-IRC-IRC-IRC
 Leave Link  123 at Mon Nov 11 15:36:37 2019, MaxMem=  1835008000 cpu:         0.0
 (Enter /cm/shared/c3ddb/gaussian/09.d01/g09/l202.exe)
                          Input orientation:                          
 ---------------------------------------------------------------------
 Center     Atomic      Atomic             Coordinates (Angstroms)
 Number     Number       Type             X           Y           Z
 ---------------------------------------------------------------------
      1          6           0       -2.675800   -1.323230   -0.081730
      2          6           0       -2.216380    0.062420   -0.550620
      3          6           0       -1.277590    0.745200    0.443740
      4          6           0       -0.404700    1.759340    0.022330
      5          8           0        1.501200    1.044400   -0.173580
      6          6           0        1.639570   -0.183950    0.096660
      7          6           0        2.894880   -0.891980   -0.372600
      8          8           0        0.769590   -0.879670    0.726610
      9          1           0       -3.097740    0.694870   -0.731670
     10          1           0       -1.703470   -0.030950   -1.517840
     11          1           0       -0.311620   -0.117780    0.686200
     12          1           0       -1.671850    0.867660    1.457650
     13          1           0       -0.316050    2.033900   -1.024140
     14          1           0       -0.021090    2.492650    0.722600
     15          1           0       -3.203530   -1.259590    0.877920
     16          1           0       -3.359530   -1.779630   -0.806320
     17          1           0       -1.820680   -1.994630    0.052950
     18          1           0        3.231740   -1.597970    0.391660
     19          1           0        2.667200   -1.465010   -1.279510
     20          1           0        3.680440   -0.168100   -0.600360
 ---------------------------------------------------------------------
                    Distance matrix (angstroms):
                    1          2          3          4          5
     1  C    0.000000
     2  C    1.533281   0.000000
     3  C    2.551375   1.528485   0.000000
     4  C    3.830269   2.547547   1.402855   0.000000
     5  O    4.802233   3.863528   2.862216   2.044988   0.000000
     6  C    4.466789   3.917655   3.081170   2.821514   1.265314
     7  C    5.594914   5.202648   4.555906   4.251199   2.394059
     8  O    3.566633   3.381548   2.628909   2.973103   2.246695
     9  H    2.161755   1.099803   2.167272   2.992336   4.645846
    10  H    2.162828   1.098776   2.152110   2.695193   3.637763
    11  H    2.762639   2.278224   1.317809   1.993230   2.318663
    12  H    2.859651   2.231160   1.094738   2.112086   3.572169
    13  H    4.210330   2.778886   2.177149   1.085514   2.237177
    14  H    4.717560   3.513745   2.170285   1.084103   2.284280
    15  H    1.097031   2.182407   2.813706   4.204690   5.343080
    16  H    1.095819   2.182962   3.503126   4.684228   5.657049
    17  H    1.095512   2.179984   2.820343   4.012260   4.507982
    18  H    5.932842   5.772937   5.082048   4.963026   3.208798
    19  H    5.477447   5.168528   4.839007   4.639805   2.979895
    20  H    6.481133   5.901534   5.148429   4.559730   2.530096
                    6          7          8          9         10
     6  C    0.000000
     7  C    1.515689   0.000000
     8  O    1.279738   2.392754   0.000000
     9  H    4.888820   6.209551   4.422895   0.000000
    10  H    3.715634   4.816406   3.445854   1.757517   0.000000
    11  H    2.039382   3.464403   1.323301   3.230050   2.608175
    12  H    3.731445   5.225052   3.090018   2.618423   3.108382
    13  H    3.162199   4.392647   3.568281   3.101022   2.536194
    14  H    3.211507   4.599790   3.463774   3.848726   3.770747
    15  H    5.022249   6.236148   3.994110   2.534144   3.082110
    16  H    5.324713   6.331957   4.495490   2.489429   2.511310
    17  H    3.905612   4.861423   2.899388   3.078948   2.517371
    18  H    2.149763   1.093613   2.586567   6.825050   5.518880
    19  H    2.142658   1.096671   2.822776   6.180594   4.606092
    20  H    2.156673   1.092237   3.277229   6.834156   5.463247
                   11         12         13         14         15
    11  H    0.000000
    12  H    1.848365   0.000000
    13  H    2.748638   3.059018   0.000000
    14  H    2.626800   2.430206   1.829905   0.000000
    15  H    3.115065   2.684646   4.775191   4.922535   0.000000
    16  H    3.778772   3.870655   4.883977   5.633396   1.769588
    17  H    2.490147   3.191870   4.433180   4.880844   1.770066
    18  H    3.851378   5.591141   5.270843   5.236754   6.462480
    19  H    3.814763   5.635668   4.605146   5.186369   6.257969
    20  H    4.194557   5.827110   4.582611   4.746698   7.125006
                   16         17         18         19         20
    16  H    0.000000
    17  H    1.775564   0.000000
    18  H    6.701716   5.079273   0.000000
    19  H    6.053459   4.711371   1.768952   0.000000
    20  H    7.225000   5.833125   1.797210   1.780414   0.000000
 Symmetry turned off by external request.
 Stoichiometry    C6H12O2
 Framework group  C1[X(C6H12O2)]
 Deg. of freedom    54
 Full point group                 C1      NOp   1
 Rotational constants (GHZ):      3.2133910      1.1385747      0.9249502
 Leave Link  202 at Mon Nov 11 15:36:37 2019, MaxMem=  1835008000 cpu:         0.3
 (Enter /cm/shared/c3ddb/gaussian/09.d01/g09/l301.exe)
 Standard basis: 6-31G(d) (6D, 7F)
 Ernie: Thresh=  0.10000D-02 Tol=  0.10000D-05 Strict=F.
   144 basis functions,   272 primitive gaussians,   144 cartesian basis functions
    32 alpha electrons       32 beta electrons
       nuclear repulsion energy       386.2502270034 Hartrees.
 IExCor=  402 DFT=T Ex+Corr=B3LYP ExCW=0 ScaHFX=  0.200000
 ScaDFX=  0.800000  0.720000  1.000000  0.810000 ScalE2=  1.000000  1.000000
 IRadAn=      0 IRanWt=     -1 IRanGd=            0 ICorTp=0 IEmpDi=  4
 NAtoms=   20 NActive=   20 NUniq=   20 SFac= 1.00D+00 NAtFMM=   60 NAOKFM=F Big=F
 Integral buffers will be    131072 words long.
 Raffenetti 2 integral format.
 Two-electron integral symmetry is turned off.
 Leave Link  301 at Mon Nov 11 15:36:37 2019, MaxMem=  1835008000 cpu:         0.7
 (Enter /cm/shared/c3ddb/gaussian/09.d01/g09/l302.exe)
 NPDir=0 NMtPBC=     1 NCelOv=     1 NCel=       1 NClECP=     1 NCelD=      1
         NCelK=      1 NCelE2=     1 NClLst=     1 CellRange=     0.0.
 One-electron integrals computed using PRISM.
 NBasis=   144 RedAO= T EigKep=  3.28D-03  NBF=   144
 NBsUse=   144 1.00D-06 EigRej= -1.00D+00 NBFU=   144
 Precomputing XC quadrature grid using
 IXCGrd= 4 IRadAn=           0 IRanWt=          -1 IRanGd=           0 AccXCQ= 0.00D+00.
 Generated NRdTot=       0 NPtTot=           0 NUsed=           0 NTot=          32
 NSgBfM=   144   144   144   144   144 MxSgAt=    20 MxSgA2=    20.
 Leave Link  302 at Mon Nov 11 15:36:37 2019, MaxMem=  1835008000 cpu:         2.5
 (Enter /cm/shared/c3ddb/gaussian/09.d01/g09/l303.exe)
 DipDrv:  MaxL=1.
 Leave Link  303 at Mon Nov 11 15:36:38 2019, MaxMem=  1835008000 cpu:         0.9
 (Enter /cm/shared/c3ddb/gaussian/09.d01/g09/l401.exe)
 ExpMin= 1.61D-01 ExpMax= 5.48D+03 ExpMxC= 8.25D+02 IAcc=1 IRadAn=         1 AccDes= 0.00D+00
 Harris functional with IExCor=  402 and IRadAn=       1 diagonalized for initial guess.
 HarFok:  IExCor=  402 AccDes= 0.00D+00 IRadAn=         1 IDoV= 1 UseB2=F ITyADJ=14
 ICtDFT=  3500011 ScaDFX=  1.000000  1.000000  1.000000  1.000000
 FoFCou: FMM=F IPFlag=           0 FMFlag=      100000 FMFlg1=           0
         NFxFlg=           0 DoJE=T BraDBF=F KetDBF=T FulRan=T
         wScrn=  0.000000 ICntrl=     500 IOpCl=  0 I1Cent=   200000004 NGrid=           0
         NMat0=    1 NMatS0=      1 NMatT0=    0 NMatD0=    1 NMtDS0=    0 NMtDT0=    0
 Symmetry not used in FoFCou.
 Harris En= -386.321367763942    
 JPrj=0 DoOrth=F DoCkMO=F.
 Initial guess <Sx>= 0.0000 <Sy>= 0.0000 <Sz>= 0.0000 <S**2>= 0.0000 S= 0.0000
 Leave Link  401 at Mon Nov 11 15:36:38 2019, MaxMem=  1835008000 cpu:         3.5
 (Enter /cm/shared/c3ddb/gaussian/09.d01/g09/l502.exe)
 UHF open shell SCF:
 Using DIIS extrapolation, IDIIS=  1040.
 Two-electron integral symmetry not used.
 Keep R1 and R2 ints in memory in canonical form, NReq=110611094.
 IVT=       82814 IEndB=       82814 NGot=  1835008000 MDV=  1725921147
 LenX=  1725921147 LenY=  1725899970
 Requested convergence on RMS density matrix=1.00D-08 within 128 cycles.
 Requested convergence on MAX density matrix=1.00D-06.
 Requested convergence on             energy=1.00D-06.
 No special actions if energy rises.
 FoFCou: FMM=F IPFlag=           0 FMFlag=           0 FMFlg1=           0
         NFxFlg=           0 DoJE=F BraDBF=F KetDBF=F FulRan=T
         wScrn=  0.000000 ICntrl=     600 IOpCl=  0 I1Cent=           0 NGrid=           0
         NMat0=    1 NMatS0=  10440 NMatT0=    0 NMatD0=    1 NMtDS0=    0 NMtDT0=    0
 Symmetry not used in FoFCou.
 Integral accuracy reduced to 1.0D-05 until final iterations.

 Cycle   1  Pass 0  IDiag  1:
 E= -385.975014176454    
 DIIS: error= 3.73D-02 at cycle   1 NSaved=   1.
 NSaved= 1 IEnMin= 1 EnMin= -385.975014176454     IErMin= 1 ErrMin= 3.73D-02
 ErrMax= 3.73D-02  0.00D+00 EMaxC= 1.00D-01 BMatC= 1.17D+00 BMatP= 1.17D+00
 IDIUse=3 WtCom= 6.27D-01 WtEn= 3.73D-01
 Coeff-Com:  0.100D+01
 Coeff-En:   0.100D+01
 Coeff:      0.100D+01
 Gap=     0.138 Goal=   None    Shift=    0.000
 Gap=     0.138 Goal=   None    Shift=    0.000
 GapD=    0.138 DampG=1.000 DampE=0.500 DampFc=0.5000 IDamp=-1.
 Damping current iteration by 5.00D-01
 RMSDP=7.50D-03 MaxDP=1.35D-01              OVMax= 1.71D-01

 Cycle   2  Pass 0  IDiag  1:
 E= -386.091187844828     Delta-E=       -0.116173668374 Rises=F Damp=T
 DIIS: error= 7.79D-03 at cycle   2 NSaved=   2.
 NSaved= 2 IEnMin= 2 EnMin= -386.091187844828     IErMin= 2 ErrMin= 7.79D-03
 ErrMax= 7.79D-03  0.00D+00 EMaxC= 1.00D-01 BMatC= 7.30D-02 BMatP= 1.17D+00
 IDIUse=3 WtCom= 9.22D-01 WtEn= 7.79D-02
 Coeff-Com:  0.118D+00 0.882D+00
 Coeff-En:   0.173D+00 0.827D+00
 Coeff:      0.122D+00 0.878D+00
 Gap=     0.189 Goal=   None    Shift=    0.000
 Gap=     0.189 Goal=   None    Shift=    0.000
 RMSDP=1.47D-03 MaxDP=3.26D-02 DE=-1.16D-01 OVMax= 1.15D-01

 Cycle   3  Pass 0  IDiag  1:
 E= -386.239977056242     Delta-E=       -0.148789211414 Rises=F Damp=F
 DIIS: error= 6.38D-03 at cycle   3 NSaved=   3.
 NSaved= 3 IEnMin= 3 EnMin= -386.239977056242     IErMin= 3 ErrMin= 6.38D-03
 ErrMax= 6.38D-03  0.00D+00 EMaxC= 1.00D-01 BMatC= 5.29D-02 BMatP= 7.30D-02
 IDIUse=3 WtCom= 9.36D-01 WtEn= 6.38D-02
 Coeff-Com:  0.295D-01 0.457D+00 0.513D+00
 Coeff-En:   0.000D+00 0.000D+00 0.100D+01
 Coeff:      0.277D-01 0.428D+00 0.544D+00
 Gap=     0.176 Goal=   None    Shift=    0.000
 Gap=     0.176 Goal=   None    Shift=    0.000
 RMSDP=9.60D-04 MaxDP=2.11D-02 DE=-1.49D-01 OVMax= 4.02D-02

 Cycle   4  Pass 0  IDiag  1:
 E= -386.249190851046     Delta-E=       -0.009213794804 Rises=F Damp=F
 DIIS: error= 3.34D-03 at cycle   4 NSaved=   4.
 NSaved= 4 IEnMin= 4 EnMin= -386.249190851046     IErMin= 4 ErrMin= 3.34D-03
 ErrMax= 3.34D-03  0.00D+00 EMaxC= 1.00D-01 BMatC= 1.17D-02 BMatP= 5.29D-02
 IDIUse=3 WtCom= 9.67D-01 WtEn= 3.34D-02
 Coeff-Com:  0.205D-02 0.719D-01 0.324D+00 0.602D+00
 Coeff-En:   0.000D+00 0.000D+00 0.203D+00 0.797D+00
 Coeff:      0.198D-02 0.695D-01 0.320D+00 0.609D+00
 Gap=     0.184 Goal=   None    Shift=    0.000
 Gap=     0.184 Goal=   None    Shift=    0.000
 RMSDP=4.03D-04 MaxDP=1.10D-02 DE=-9.21D-03 OVMax= 1.91D-02

 Cycle   5  Pass 0  IDiag  1:
 E= -386.251374612316     Delta-E=       -0.002183761270 Rises=F Damp=F
 DIIS: error= 1.60D-03 at cycle   5 NSaved=   5.
 NSaved= 5 IEnMin= 5 EnMin= -386.251374612316     IErMin= 5 ErrMin= 1.60D-03
 ErrMax= 1.60D-03  0.00D+00 EMaxC= 1.00D-01 BMatC= 1.88D-03 BMatP= 1.17D-02
 IDIUse=3 WtCom= 9.84D-01 WtEn= 1.60D-02
 Coeff-Com:  0.109D-03 0.196D-01 0.185D+00 0.408D+00 0.387D+00
 Coeff-En:   0.000D+00 0.000D+00 0.000D+00 0.655D-01 0.935D+00
 Coeff:      0.108D-03 0.193D-01 0.182D+00 0.403D+00 0.396D+00
 Gap=     0.183 Goal=   None    Shift=    0.000
 Gap=     0.183 Goal=   None    Shift=    0.000
 RMSDP=1.49D-04 MaxDP=4.28D-03 DE=-2.18D-03 OVMax= 7.65D-03

 Cycle   6  Pass 0  IDiag  1:
 E= -386.251702305077     Delta-E=       -0.000327692761 Rises=F Damp=F
 DIIS: error= 5.58D-04 at cycle   6 NSaved=   6.
 NSaved= 6 IEnMin= 6 EnMin= -386.251702305077     IErMin= 6 ErrMin= 5.58D-04
 ErrMax= 5.58D-04  0.00D+00 EMaxC= 1.00D-01 BMatC= 2.19D-04 BMatP= 1.88D-03
 IDIUse=3 WtCom= 9.94D-01 WtEn= 5.58D-03
 Coeff-Com: -0.189D-03 0.247D-02 0.755D-01 0.184D+00 0.274D+00 0.464D+00
 Coeff-En:   0.000D+00 0.000D+00 0.000D+00 0.000D+00 0.114D+00 0.886D+00
 Coeff:     -0.188D-03 0.246D-02 0.750D-01 0.183D+00 0.273D+00 0.466D+00
 Gap=     0.183 Goal=   None    Shift=    0.000
 Gap=     0.183 Goal=   None    Shift=    0.000
 RMSDP=5.48D-05 MaxDP=1.82D-03 DE=-3.28D-04 OVMax= 3.14D-03

 Cycle   7  Pass 0  IDiag  1:
 E= -386.251745242905     Delta-E=       -0.000042937828 Rises=F Damp=F
 DIIS: error= 9.75D-05 at cycle   7 NSaved=   7.
 NSaved= 7 IEnMin= 7 EnMin= -386.251745242905     IErMin= 7 ErrMin= 9.75D-05
 ErrMax= 9.75D-05  0.00D+00 EMaxC= 1.00D-01 BMatC= 1.16D-05 BMatP= 2.19D-04
 IDIUse=1 WtCom= 1.00D+00 WtEn= 0.00D+00
 Coeff-Com: -0.449D-04-0.733D-03 0.217D-01 0.580D-01 0.105D+00 0.265D+00
 Coeff-Com:  0.550D+00
 Coeff:     -0.449D-04-0.733D-03 0.217D-01 0.580D-01 0.105D+00 0.265D+00
 Coeff:      0.550D+00
 Gap=     0.183 Goal=   None    Shift=    0.000
 Gap=     0.183 Goal=   None    Shift=    0.000
 RMSDP=1.33D-05 MaxDP=3.20D-04 DE=-4.29D-05 OVMax= 7.04D-04

 Cycle   8  Pass 0  IDiag  1:
 E= -386.251748015715     Delta-E=       -0.000002772810 Rises=F Damp=F
 DIIS: error= 1.34D-05 at cycle   8 NSaved=   8.
 NSaved= 8 IEnMin= 8 EnMin= -386.251748015715     IErMin= 8 ErrMin= 1.34D-05
 ErrMax= 1.34D-05  0.00D+00 EMaxC= 1.00D-01 BMatC= 3.03D-07 BMatP= 1.16D-05
 IDIUse=1 WtCom= 1.00D+00 WtEn= 0.00D+00
 Coeff-Com: -0.108D-04-0.395D-03 0.590D-02 0.170D-01 0.328D-01 0.964D-01
 Coeff-Com:  0.237D+00 0.611D+00
 Coeff:     -0.108D-04-0.395D-03 0.590D-02 0.170D-01 0.328D-01 0.964D-01
 Coeff:      0.237D+00 0.611D+00
 Gap=     0.183 Goal=   None    Shift=    0.000
 Gap=     0.183 Goal=   None    Shift=    0.000
 RMSDP=2.50D-06 MaxDP=7.50D-05 DE=-2.77D-06 OVMax= 1.29D-04

 Initial convergence to 1.0D-05 achieved.  Increase integral accuracy.
 Cycle   9  Pass 1  IDiag  1:
 E= -386.251757213920     Delta-E=       -0.000009198205 Rises=F Damp=F
 DIIS: error= 1.02D-05 at cycle   1 NSaved=   1.
 NSaved= 1 IEnMin= 1 EnMin= -386.251757213920     IErMin= 1 ErrMin= 1.02D-05
 ErrMax= 1.02D-05  0.00D+00 EMaxC= 1.00D-01 BMatC= 1.41D-07 BMatP= 1.41D-07
 IDIUse=1 WtCom= 1.00D+00 WtEn= 0.00D+00
 Coeff-Com:  0.100D+01
 Coeff:      0.100D+01
 Gap=     0.183 Goal=   None    Shift=    0.000
 Gap=     0.183 Goal=   None    Shift=    0.000
 RMSDP=2.50D-06 MaxDP=7.50D-05 DE=-9.20D-06 OVMax= 7.35D-05

 Cycle  10  Pass 1  IDiag  1:
 E= -386.251757242710     Delta-E=       -0.000000028789 Rises=F Damp=F
 DIIS: error= 6.10D-06 at cycle   2 NSaved=   2.
 NSaved= 2 IEnMin= 2 EnMin= -386.251757242710     IErMin= 2 ErrMin= 6.10D-06
 ErrMax= 6.10D-06  0.00D+00 EMaxC= 1.00D-01 BMatC= 7.76D-08 BMatP= 1.41D-07
 IDIUse=1 WtCom= 1.00D+00 WtEn= 0.00D+00
 Coeff-Com:  0.399D+00 0.601D+00
 Coeff:      0.399D+00 0.601D+00
 Gap=     0.183 Goal=   None    Shift=    0.000
 Gap=     0.183 Goal=   None    Shift=    0.000
 RMSDP=1.64D-06 MaxDP=4.28D-05 DE=-2.88D-08 OVMax= 1.15D-04

 Cycle  11  Pass 1  IDiag  1:
 E= -386.251757251874     Delta-E=       -0.000000009165 Rises=F Damp=F
 DIIS: error= 7.04D-06 at cycle   3 NSaved=   3.
 NSaved= 3 IEnMin= 3 EnMin= -386.251757251874     IErMin= 2 ErrMin= 6.10D-06
 ErrMax= 7.04D-06  0.00D+00 EMaxC= 1.00D-01 BMatC= 4.66D-08 BMatP= 7.76D-08
 IDIUse=1 WtCom= 1.00D+00 WtEn= 0.00D+00
 Coeff-Com:  0.529D-01 0.427D+00 0.520D+00
 Coeff:      0.529D-01 0.427D+00 0.520D+00
 Gap=     0.183 Goal=   None    Shift=    0.000
 Gap=     0.183 Goal=   None    Shift=    0.000
 RMSDP=8.70D-07 MaxDP=2.11D-05 DE=-9.16D-09 OVMax= 5.72D-05

 Cycle  12  Pass 1  IDiag  1:
 E= -386.251757260326     Delta-E=       -0.000000008452 Rises=F Damp=F
 DIIS: error= 4.50D-06 at cycle   4 NSaved=   4.
 NSaved= 4 IEnMin= 4 EnMin= -386.251757260326     IErMin= 4 ErrMin= 4.50D-06
 ErrMax= 4.50D-06  0.00D+00 EMaxC= 1.00D-01 BMatC= 1.24D-08 BMatP= 4.66D-08
 IDIUse=1 WtCom= 1.00D+00 WtEn= 0.00D+00
 Coeff-Com: -0.168D-01 0.249D+00 0.388D+00 0.379D+00
 Coeff:     -0.168D-01 0.249D+00 0.388D+00 0.379D+00
 Gap=     0.183 Goal=   None    Shift=    0.000
 Gap=     0.183 Goal=   None    Shift=    0.000
 RMSDP=3.18D-07 MaxDP=9.84D-06 DE=-8.45D-09 OVMax= 1.58D-05

 Cycle  13  Pass 1  IDiag  1:
 E= -386.251757262744     Delta-E=       -0.000000002418 Rises=F Damp=F
 DIIS: error= 4.00D-07 at cycle   5 NSaved=   5.
 NSaved= 5 IEnMin= 5 EnMin= -386.251757262744     IErMin= 5 ErrMin= 4.00D-07
 ErrMax= 4.00D-07  0.00D+00 EMaxC= 1.00D-01 BMatC= 1.82D-10 BMatP= 1.24D-08
 IDIUse=1 WtCom= 1.00D+00 WtEn= 0.00D+00
 Coeff-Com: -0.102D-01 0.109D+00 0.167D+00 0.195D+00 0.539D+00
 Coeff:     -0.102D-01 0.109D+00 0.167D+00 0.195D+00 0.539D+00
 Gap=     0.183 Goal=   None    Shift=    0.000
 Gap=     0.183 Goal=   None    Shift=    0.000
 RMSDP=5.02D-08 MaxDP=1.21D-06 DE=-2.42D-09 OVMax= 1.66D-06

 Cycle  14  Pass 1  IDiag  1:
 E= -386.251757262783     Delta-E=       -0.000000000039 Rises=F Damp=F
 DIIS: error= 1.30D-07 at cycle   6 NSaved=   6.
 NSaved= 6 IEnMin= 6 EnMin= -386.251757262783     IErMin= 6 ErrMin= 1.30D-07
 ErrMax= 1.30D-07  0.00D+00 EMaxC= 1.00D-01 BMatC= 1.50D-11 BMatP= 1.82D-10
 IDIUse=1 WtCom= 1.00D+00 WtEn= 0.00D+00
 Coeff-Com: -0.235D-02 0.189D-01 0.214D-01 0.420D-01 0.234D+00 0.686D+00
 Coeff:     -0.235D-02 0.189D-01 0.214D-01 0.420D-01 0.234D+00 0.686D+00
 Gap=     0.183 Goal=   None    Shift=    0.000
 Gap=     0.183 Goal=   None    Shift=    0.000
 RMSDP=1.58D-08 MaxDP=3.27D-07 DE=-3.91D-11 OVMax= 5.46D-07

 Cycle  15  Pass 1  IDiag  1:
 E= -386.251757262788     Delta-E=       -0.000000000004 Rises=F Damp=F
 DIIS: error= 3.32D-08 at cycle   7 NSaved=   7.
 NSaved= 7 IEnMin= 7 EnMin= -386.251757262788     IErMin= 7 ErrMin= 3.32D-08
 ErrMax= 3.32D-08  0.00D+00 EMaxC= 1.00D-01 BMatC= 1.45D-12 BMatP= 1.50D-11
 IDIUse=1 WtCom= 1.00D+00 WtEn= 0.00D+00
 Coeff-Com: -0.278D-03 0.419D-03-0.476D-02 0.398D-02 0.695D-01 0.305D+00
 Coeff-Com:  0.626D+00
 Coeff:     -0.278D-03 0.419D-03-0.476D-02 0.398D-02 0.695D-01 0.305D+00
 Coeff:      0.626D+00
 Gap=     0.183 Goal=   None    Shift=    0.000
 Gap=     0.183 Goal=   None    Shift=    0.000
 RMSDP=6.12D-09 MaxDP=1.24D-07 DE=-4.32D-12 OVMax= 2.66D-07

 SCF Done:  E(UB3LYP) =  -386.251757263     A.U. after   15 cycles
            NFock= 15  Conv=0.61D-08     -V/T= 2.0094
 <Sx>= 0.0000 <Sy>= 0.0000 <Sz>= 0.0000 <S**2>= 0.0000 S= 0.0000
 <L.S>= 0.000000000000E+00
 KE= 3.826361307424D+02 PE=-1.672760791254D+03 EE= 5.176226762450D+02
 Annihilation of the first spin contaminant:
 S**2 before annihilation     0.0000,   after     0.0000
 Leave Link  502 at Mon Nov 11 15:36:59 2019, MaxMem=  1835008000 cpu:       131.3
 (Enter /cm/shared/c3ddb/gaussian/09.d01/g09/l801.exe)
 DoSCS=F DFT=T ScalE2(SS,OS)=  1.000000  1.000000
 Range of M.O.s used for correlation:     1   144
 NBasis=   144 NAE=    32 NBE=    32 NFC=     0 NFV=     0
 NROrb=    144 NOA=    32 NOB=    32 NVA=   112 NVB=   112
 Leave Link  801 at Mon Nov 11 15:36:59 2019, MaxMem=  1835008000 cpu:         0.2
 (Enter /cm/shared/c3ddb/gaussian/09.d01/g09/l1101.exe)
 Using compressed storage, NAtomX=    20.
 Will process     21 centers per pass.
 Leave Link 1101 at Mon Nov 11 15:37:00 2019, MaxMem=  1835008000 cpu:         4.2
 (Enter /cm/shared/c3ddb/gaussian/09.d01/g09/l1102.exe)
 Symmetrizing basis deriv contribution to polar:
 IMax=3 JMax=2 DiffMx= 0.00D+00
 Leave Link 1102 at Mon Nov 11 15:37:00 2019, MaxMem=  1835008000 cpu:         0.7
 (Enter /cm/shared/c3ddb/gaussian/09.d01/g09/l1110.exe)
 Forming Gx(P) for the SCF density, NAtomX=    20.
 Integral derivatives from FoFJK, PRISM(SPDF).
 Do as many integral derivatives as possible in FoFJK.
 G2DrvN: MDV=    1835007736.
 G2DrvN: will do    21 centers at a time, making    1 passes.
 Calling FoFCou, ICntrl=  3107 FMM=F I1Cent=   0 AccDes= 0.00D+00.
 FoFJK:  IHMeth= 1 ICntrl=    3107 DoSepK=F KAlg= 0 I1Cent=   0 FoldK=F
 IRaf=         0 NMat=   1 IRICut=       1 DoRegI=T DoRafI=F ISym2E= 0.
 FoFCou: FMM=F IPFlag=           0 FMFlag=      100000 FMFlg1=           0
         NFxFlg=           0 DoJE=F BraDBF=F KetDBF=F FulRan=T
         wScrn=  0.000000 ICntrl=    3107 IOpCl=  1 I1Cent=           0 NGrid=           0
         NMat0=    1 NMatS0=      1 NMatT0=    0 NMatD0=    1 NMtDS0=    0 NMtDT0=    0
 Symmetry not used in FoFCou.
 End of G2Drv F.D. properties file   721 does not exist.
 End of G2Drv F.D. properties file   722 does not exist.
 End of G2Drv F.D. properties file   788 does not exist.
 Leave Link 1110 at Mon Nov 11 15:37:53 2019, MaxMem=  1835008000 cpu:       316.7
 (Enter /cm/shared/c3ddb/gaussian/09.d01/g09/l1002.exe)
 Minotr:  UHF open shell wavefunction.
          IDoAtm=11111111111111111111
          Direct CPHF calculation.
          Differentiating once with respect to nuclear coordinates.
          Requested convergence is 1.0D-08 RMS, and 1.0D-07 maximum.
          Secondary convergence is 1.0D-12 RMS, and 1.0D-12 maximum.
          NewPWx=T KeepS1=F KeepF1=F KeepIn=T MapXYZ=F SortEE=F KeepMc=T.
          MDV=    1835007508 using IRadAn=       2.
 Generate precomputed XC quadrature information.
 Keep R1 and R2 ints in memory in canonical form, NReq=110534621.
 FoFCou: FMM=F IPFlag=           0 FMFlag=           0 FMFlg1=           0
         NFxFlg=           0 DoJE=F BraDBF=F KetDBF=F FulRan=T
         wScrn=  0.000000 ICntrl=     600 IOpCl=  0 I1Cent=           0 NGrid=           0
         NMat0=    1 NMatS0=  10440 NMatT0=    0 NMatD0=    1 NMtDS0=    0 NMtDT0=    0
 Symmetry not used in FoFCou.
          Solving linear equations simultaneously, MaxMat=       0.
          There are    63 degrees of freedom in the 1st order CPHF.  IDoFFX=6 NUNeed=     0.
     57 vectors produced by pass  0 Test12= 1.14D-14 1.59D-09 XBig12= 2.26D-01 1.93D-01.
 AX will form    57 AO Fock derivatives at one time.
     57 vectors produced by pass  1 Test12= 1.14D-14 1.59D-09 XBig12= 4.74D-02 3.24D-02.
     57 vectors produced by pass  2 Test12= 1.14D-14 1.59D-09 XBig12= 3.54D-04 2.69D-03.
     57 vectors produced by pass  3 Test12= 1.14D-14 1.59D-09 XBig12= 6.39D-07 9.52D-05.
     57 vectors produced by pass  4 Test12= 1.14D-14 1.59D-09 XBig12= 5.62D-10 2.32D-06.
     29 vectors produced by pass  5 Test12= 1.14D-14 1.59D-09 XBig12= 4.11D-13 5.20D-08.
 InvSVY:  IOpt=1 It=  1 EMax= 5.55D-16
 Solved reduced A of dimension   314 with    63 vectors.
 End of Minotr F.D. properties file   721 does not exist.
 End of Minotr F.D. properties file   722 does not exist.
 End of Minotr F.D. properties file   788 does not exist.
 Leave Link 1002 at Mon Nov 11 15:38:37 2019, MaxMem=  1835008000 cpu:       311.0
 (Enter /cm/shared/c3ddb/gaussian/09.d01/g09/l601.exe)
 Copying SCF densities to generalized density rwf, IOpCl= 1 IROHF=0.

 **********************************************************************

            Population analysis using the SCF density.

 **********************************************************************

 Alpha  occ. eigenvalues --  -19.13693 -19.13509 -10.30363 -10.24974 -10.18870
 Alpha  occ. eigenvalues --  -10.18153 -10.17572 -10.17163  -1.06506  -0.97197
 Alpha  occ. eigenvalues --   -0.80869  -0.74104  -0.72569  -0.63138  -0.58353
 Alpha  occ. eigenvalues --   -0.53913  -0.48539  -0.46324  -0.45387  -0.44616
 Alpha  occ. eigenvalues --   -0.43975  -0.43481  -0.39543  -0.38965  -0.38767
 Alpha  occ. eigenvalues --   -0.36729  -0.35168  -0.34085  -0.33675  -0.29194
 Alpha  occ. eigenvalues --   -0.27800  -0.22161
 Alpha virt. eigenvalues --   -0.03903   0.02802   0.09943   0.11404   0.12109
 Alpha virt. eigenvalues --    0.12645   0.15862   0.16663   0.16770   0.17491
 Alpha virt. eigenvalues --    0.18307   0.18940   0.19484   0.21925   0.23995
 Alpha virt. eigenvalues --    0.26774   0.28390   0.31441   0.32578   0.39756
 Alpha virt. eigenvalues --    0.46487   0.49945   0.52114   0.54758   0.55305
 Alpha virt. eigenvalues --    0.56935   0.57590   0.60854   0.61444   0.64097
 Alpha virt. eigenvalues --    0.65103   0.66279   0.67353   0.69212   0.72811
 Alpha virt. eigenvalues --    0.74822   0.77286   0.82086   0.83299   0.84431
 Alpha virt. eigenvalues --    0.86387   0.87369   0.88548   0.88702   0.91078
 Alpha virt. eigenvalues --    0.91471   0.92970   0.94525   0.95024   0.96019
 Alpha virt. eigenvalues --    0.98474   1.00182   1.03824   1.09455   1.10692
 Alpha virt. eigenvalues --    1.13740   1.18178   1.21133   1.35117   1.36950
 Alpha virt. eigenvalues --    1.39441   1.41220   1.46159   1.49976   1.53806
 Alpha virt. eigenvalues --    1.56527   1.58945   1.63225   1.71582   1.75080
 Alpha virt. eigenvalues --    1.79005   1.80649   1.82083   1.83473   1.85645
 Alpha virt. eigenvalues --    1.88964   1.93042   1.95133   1.96148   1.97966
 Alpha virt. eigenvalues --    2.00618   2.06282   2.08035   2.11944   2.16279
 Alpha virt. eigenvalues --    2.19941   2.23003   2.24310   2.25010   2.28929
 Alpha virt. eigenvalues --    2.30957   2.36012   2.41440   2.44252   2.47523
 Alpha virt. eigenvalues --    2.53416   2.59629   2.66151   2.75282   2.76266
 Alpha virt. eigenvalues --    2.79802   2.89264   2.94039   3.09544   4.02974
 Alpha virt. eigenvalues --    4.12465   4.15300   4.18591   4.22940   4.37965
 Alpha virt. eigenvalues --    4.45578   4.56824
  Beta  occ. eigenvalues --  -19.13693 -19.13509 -10.30363 -10.24974 -10.18870
  Beta  occ. eigenvalues --  -10.18153 -10.17572 -10.17163  -1.06506  -0.97197
  Beta  occ. eigenvalues --   -0.80869  -0.74104  -0.72569  -0.63138  -0.58353
  Beta  occ. eigenvalues --   -0.53913  -0.48539  -0.46324  -0.45387  -0.44616
  Beta  occ. eigenvalues --   -0.43975  -0.43481  -0.39543  -0.38965  -0.38767
  Beta  occ. eigenvalues --   -0.36729  -0.35168  -0.34085  -0.33675  -0.29194
  Beta  occ. eigenvalues --   -0.27800  -0.22161
  Beta virt. eigenvalues --   -0.03903   0.02802   0.09943   0.11404   0.12109
  Beta virt. eigenvalues --    0.12645   0.15862   0.16663   0.16770   0.17491
  Beta virt. eigenvalues --    0.18307   0.18940   0.19484   0.21925   0.23995
  Beta virt. eigenvalues --    0.26774   0.28390   0.31441   0.32578   0.39756
  Beta virt. eigenvalues --    0.46487   0.49945   0.52114   0.54758   0.55305
  Beta virt. eigenvalues --    0.56935   0.57590   0.60854   0.61444   0.64097
  Beta virt. eigenvalues --    0.65103   0.66279   0.67353   0.69212   0.72811
  Beta virt. eigenvalues --    0.74822   0.77286   0.82086   0.83299   0.84431
  Beta virt. eigenvalues --    0.86387   0.87369   0.88548   0.88702   0.91078
  Beta virt. eigenvalues --    0.91471   0.92970   0.94525   0.95024   0.96019
  Beta virt. eigenvalues --    0.98474   1.00182   1.03824   1.09455   1.10692
  Beta virt. eigenvalues --    1.13740   1.18178   1.21133   1.35117   1.36950
  Beta virt. eigenvalues --    1.39441   1.41220   1.46159   1.49976   1.53806
  Beta virt. eigenvalues --    1.56527   1.58945   1.63225   1.71582   1.75080
  Beta virt. eigenvalues --    1.79005   1.80649   1.82083   1.83473   1.85645
  Beta virt. eigenvalues --    1.88964   1.93042   1.95133   1.96148   1.97966
  Beta virt. eigenvalues --    2.00618   2.06282   2.08035   2.11944   2.16279
  Beta virt. eigenvalues --    2.19941   2.23003   2.24310   2.25010   2.28929
  Beta virt. eigenvalues --    2.30957   2.36012   2.41440   2.44252   2.47523
  Beta virt. eigenvalues --    2.53416   2.59629   2.66151   2.75282   2.76266
  Beta virt. eigenvalues --    2.79802   2.89264   2.94039   3.09544   4.02974
  Beta virt. eigenvalues --    4.12465   4.15300   4.18591   4.22940   4.37965
  Beta virt. eigenvalues --    4.45578   4.56824
          Condensed to atoms (all electrons):
               1          2          3          4          5          6
     1  C    5.075046   0.373408  -0.046989   0.003942  -0.000010  -0.000030
     2  C    0.373408   4.945987   0.353968  -0.032064   0.000842   0.000218
     3  C   -0.046989   0.353968   5.341776   0.440000  -0.036482   0.001336
     4  C    0.003942  -0.032064   0.440000   4.986307   0.084406  -0.004587
     5  O   -0.000010   0.000842  -0.036482   0.084406   8.201041   0.441458
     6  C   -0.000030   0.000218   0.001336  -0.004587   0.441458   4.286237
     7  C    0.000003   0.000034  -0.001665   0.001354  -0.091058   0.354061
     8  O   -0.000941   0.002395  -0.094250  -0.023614  -0.060095   0.389633
     9  H   -0.042311   0.380305  -0.037898  -0.004841  -0.000048  -0.000016
    10  H   -0.036155   0.377676  -0.044446  -0.003185   0.000384   0.000599
    11  H   -0.001604  -0.017442   0.197270  -0.016383  -0.014153  -0.022103
    12  H   -0.000767  -0.040447   0.360046  -0.036595   0.001230   0.000179
    13  H    0.000101  -0.007762  -0.034495   0.366797  -0.015250  -0.000432
    14  H   -0.000135   0.003685  -0.025617   0.362938  -0.013129  -0.000359
    15  H    0.378301  -0.036141  -0.004338   0.000165   0.000000   0.000003
    16  H    0.369772  -0.028043   0.004373  -0.000171   0.000000  -0.000002
    17  H    0.377691  -0.033475  -0.003639   0.000136   0.000004  -0.000004
    18  H    0.000000  -0.000001   0.000046  -0.000042   0.002523  -0.019511
    19  H    0.000000  -0.000003   0.000073  -0.000036   0.000596  -0.020307
    20  H    0.000000  -0.000001   0.000056   0.000077   0.006879  -0.022522
               7          8          9         10         11         12
     1  C    0.000003  -0.000941  -0.042311  -0.036155  -0.001604  -0.000767
     2  C    0.000034   0.002395   0.380305   0.377676  -0.017442  -0.040447
     3  C   -0.001665  -0.094250  -0.037898  -0.044446   0.197270   0.360046
     4  C    0.001354  -0.023614  -0.004841  -0.003185  -0.016383  -0.036595
     5  O   -0.091058  -0.060095  -0.000048   0.000384  -0.014153   0.001230
     6  C    0.354061   0.389633  -0.000016   0.000599  -0.022103   0.000179
     7  C    5.288497  -0.093042  -0.000001  -0.000004   0.003880   0.000001
     8  O   -0.093042   8.308178  -0.000044   0.000281   0.117414   0.000196
     9  H   -0.000001  -0.000044   0.603578  -0.038078   0.001999  -0.002802
    10  H   -0.000004   0.000281  -0.038078   0.602552  -0.002400   0.004878
    11  H    0.003880   0.117414   0.001999  -0.002400   0.387637  -0.009075
    12  H    0.000001   0.000196  -0.002802   0.004878  -0.009075   0.562656
    13  H   -0.000239   0.000163   0.000917   0.004298   0.001434   0.004310
    14  H   -0.000100   0.000253  -0.000115   0.000042   0.000497  -0.006330
    15  H    0.000000   0.000029  -0.004113   0.005095  -0.000289   0.003754
    16  H    0.000000  -0.000003  -0.002240  -0.002880   0.000065  -0.000093
    17  H   -0.000012   0.003869   0.004919  -0.004257   0.002701  -0.000116
    18  H    0.349295   0.004862   0.000000   0.000000   0.000025  -0.000001
    19  H    0.359339   0.000996   0.000000  -0.000005  -0.000039  -0.000001
    20  H    0.346955   0.003289   0.000000   0.000000  -0.000153   0.000000
              13         14         15         16         17         18
     1  C    0.000101  -0.000135   0.378301   0.369772   0.377691   0.000000
     2  C   -0.007762   0.003685  -0.036141  -0.028043  -0.033475  -0.000001
     3  C   -0.034495  -0.025617  -0.004338   0.004373  -0.003639   0.000046
     4  C    0.366797   0.362938   0.000165  -0.000171   0.000136  -0.000042
     5  O   -0.015250  -0.013129   0.000000   0.000000   0.000004   0.002523
     6  C   -0.000432  -0.000359   0.000003  -0.000002  -0.000004  -0.019511
     7  C   -0.000239  -0.000100   0.000000   0.000000  -0.000012   0.349295
     8  O    0.000163   0.000253   0.000029  -0.000003   0.003869   0.004862
     9  H    0.000917  -0.000115  -0.004113  -0.002240   0.004919   0.000000
    10  H    0.004298   0.000042   0.005095  -0.002880  -0.004257   0.000000
    11  H    0.001434   0.000497  -0.000289   0.000065   0.002701   0.000025
    12  H    0.004310  -0.006330   0.003754  -0.000093  -0.000116  -0.000001
    13  H    0.523645  -0.032361   0.000008  -0.000002   0.000008   0.000002
    14  H   -0.032361   0.518891   0.000003   0.000002  -0.000005   0.000003
    15  H    0.000008   0.000003   0.577647  -0.031554  -0.030671   0.000000
    16  H   -0.000002   0.000002  -0.031554   0.578565  -0.028655   0.000000
    17  H    0.000008  -0.000005  -0.030671  -0.028655   0.545967   0.000000
    18  H    0.000002   0.000003   0.000000   0.000000   0.000000   0.534580
    19  H    0.000017   0.000001   0.000000   0.000000   0.000001  -0.023305
    20  H    0.000010   0.000002   0.000000   0.000000   0.000000  -0.023311
              19         20
     1  C    0.000000   0.000000
     2  C   -0.000003  -0.000001
     3  C    0.000073   0.000056
     4  C   -0.000036   0.000077
     5  O    0.000596   0.006879
     6  C   -0.020307  -0.022522
     7  C    0.359339   0.346955
     8  O    0.000996   0.003289
     9  H    0.000000   0.000000
    10  H   -0.000005   0.000000
    11  H   -0.000039  -0.000153
    12  H   -0.000001   0.000000
    13  H    0.000017   0.000010
    14  H    0.000001   0.000002
    15  H    0.000000   0.000000
    16  H    0.000000   0.000000
    17  H    0.000001   0.000000
    18  H   -0.023305  -0.023311
    19  H    0.529188  -0.022256
    20  H   -0.022256   0.540755
          Atomic-Atomic Spin Densities.
               1          2          3          4          5          6
     1  C    0.000000   0.000000   0.000000   0.000000   0.000000   0.000000
     2  C    0.000000   0.000000   0.000000   0.000000   0.000000   0.000000
     3  C    0.000000   0.000000   0.000000   0.000000   0.000000   0.000000
     4  C    0.000000   0.000000   0.000000   0.000000   0.000000   0.000000
     5  O    0.000000   0.000000   0.000000   0.000000   0.000000   0.000000
     6  C    0.000000   0.000000   0.000000   0.000000   0.000000   0.000000
     7  C    0.000000   0.000000   0.000000   0.000000   0.000000   0.000000
     8  O    0.000000   0.000000   0.000000   0.000000   0.000000   0.000000
     9  H    0.000000   0.000000   0.000000   0.000000   0.000000   0.000000
    10  H    0.000000   0.000000   0.000000   0.000000   0.000000   0.000000
    11  H    0.000000   0.000000   0.000000   0.000000   0.000000   0.000000
    12  H    0.000000   0.000000   0.000000   0.000000   0.000000   0.000000
    13  H    0.000000   0.000000   0.000000   0.000000   0.000000   0.000000
    14  H    0.000000   0.000000   0.000000   0.000000   0.000000   0.000000
    15  H    0.000000   0.000000   0.000000   0.000000   0.000000   0.000000
    16  H    0.000000   0.000000   0.000000   0.000000   0.000000   0.000000
    17  H    0.000000   0.000000   0.000000   0.000000   0.000000   0.000000
    18  H    0.000000   0.000000   0.000000   0.000000   0.000000   0.000000
    19  H    0.000000   0.000000   0.000000   0.000000   0.000000   0.000000
    20  H    0.000000   0.000000   0.000000   0.000000   0.000000   0.000000
               7          8          9         10         11         12
     1  C    0.000000   0.000000   0.000000   0.000000   0.000000   0.000000
     2  C    0.000000   0.000000   0.000000   0.000000   0.000000   0.000000
     3  C    0.000000   0.000000   0.000000   0.000000   0.000000   0.000000
     4  C    0.000000   0.000000   0.000000   0.000000   0.000000   0.000000
     5  O    0.000000   0.000000   0.000000   0.000000   0.000000   0.000000
     6  C    0.000000   0.000000   0.000000   0.000000   0.000000   0.000000
     7  C    0.000000   0.000000   0.000000   0.000000   0.000000   0.000000
     8  O    0.000000   0.000000   0.000000   0.000000   0.000000   0.000000
     9  H    0.000000   0.000000   0.000000   0.000000   0.000000   0.000000
    10  H    0.000000   0.000000   0.000000   0.000000   0.000000   0.000000
    11  H    0.000000   0.000000   0.000000   0.000000   0.000000   0.000000
    12  H    0.000000   0.000000   0.000000   0.000000   0.000000   0.000000
    13  H    0.000000   0.000000   0.000000   0.000000   0.000000   0.000000
    14  H    0.000000   0.000000   0.000000   0.000000   0.000000   0.000000
    15  H    0.000000   0.000000   0.000000   0.000000   0.000000   0.000000
    16  H    0.000000   0.000000   0.000000   0.000000   0.000000   0.000000
    17  H    0.000000   0.000000   0.000000   0.000000   0.000000   0.000000
    18  H    0.000000   0.000000   0.000000   0.000000   0.000000   0.000000
    19  H    0.000000   0.000000   0.000000   0.000000   0.000000   0.000000
    20  H    0.000000   0.000000   0.000000   0.000000   0.000000   0.000000
              13         14         15         16         17         18
     1  C    0.000000   0.000000   0.000000   0.000000   0.000000   0.000000
     2  C    0.000000   0.000000   0.000000   0.000000   0.000000   0.000000
     3  C    0.000000   0.000000   0.000000   0.000000   0.000000   0.000000
     4  C    0.000000   0.000000   0.000000   0.000000   0.000000   0.000000
     5  O    0.000000   0.000000   0.000000   0.000000   0.000000   0.000000
     6  C    0.000000   0.000000   0.000000   0.000000   0.000000   0.000000
     7  C    0.000000   0.000000   0.000000   0.000000   0.000000   0.000000
     8  O    0.000000   0.000000   0.000000   0.000000   0.000000   0.000000
     9  H    0.000000   0.000000   0.000000   0.000000   0.000000   0.000000
    10  H    0.000000   0.000000   0.000000   0.000000   0.000000   0.000000
    11  H    0.000000   0.000000   0.000000   0.000000   0.000000   0.000000
    12  H    0.000000   0.000000   0.000000   0.000000   0.000000   0.000000
    13  H    0.000000   0.000000   0.000000   0.000000   0.000000   0.000000
    14  H    0.000000   0.000000   0.000000   0.000000   0.000000   0.000000
    15  H    0.000000   0.000000   0.000000   0.000000   0.000000   0.000000
    16  H    0.000000   0.000000   0.000000   0.000000   0.000000   0.000000
    17  H    0.000000   0.000000   0.000000   0.000000   0.000000   0.000000
    18  H    0.000000   0.000000   0.000000   0.000000   0.000000   0.000000
    19  H    0.000000   0.000000   0.000000   0.000000   0.000000   0.000000
    20  H    0.000000   0.000000   0.000000   0.000000   0.000000   0.000000
              19         20
     1  C    0.000000   0.000000
     2  C    0.000000   0.000000
     3  C    0.000000   0.000000
     4  C    0.000000   0.000000
     5  O    0.000000   0.000000
     6  C    0.000000   0.000000
     7  C    0.000000   0.000000
     8  O    0.000000   0.000000
     9  H    0.000000   0.000000
    10  H    0.000000   0.000000
    11  H    0.000000   0.000000
    12  H    0.000000   0.000000
    13  H    0.000000   0.000000
    14  H    0.000000   0.000000
    15  H    0.000000   0.000000
    16  H    0.000000   0.000000
    17  H    0.000000   0.000000
    18  H    0.000000   0.000000
    19  H    0.000000   0.000000
    20  H    0.000000   0.000000
 Mulliken charges and spin densities:
               1          2
     1  C   -0.449322   0.000000
     2  C   -0.243141   0.000000
     3  C   -0.369126   0.000000
     4  C   -0.124605   0.000000
     5  O   -0.509140   0.000000
     6  C    0.616151   0.000000
     7  C   -0.517299   0.000000
     8  O   -0.559571   0.000000
     9  H    0.140788   0.000000
    10  H    0.135603   0.000000
    11  H    0.370721   0.000000
    12  H    0.158976   0.000000
    13  H    0.188832   0.000000
    14  H    0.191835   0.000000
    15  H    0.142100   0.000000
    16  H    0.140866   0.000000
    17  H    0.165537   0.000000
    18  H    0.174834   0.000000
    19  H    0.175741   0.000000
    20  H    0.170220   0.000000
 Sum of Mulliken charges =   0.00000   0.00000
 Mulliken charges and spin densities with hydrogens summed into heavy atoms:
               1          2
     1  C   -0.000819   0.000000
     2  C    0.033251   0.000000
     3  C    0.160570   0.000000
     4  C    0.256062   0.000000
     5  O   -0.509140   0.000000
     6  C    0.616151   0.000000
     7  C    0.003496   0.000000
     8  O   -0.559571   0.000000
 APT charges:
               1
     1  C   -1.248193
     2  C   -0.861536
     3  C   -0.616398
     4  C   -0.703743
     5  O   -0.386515
     6  C    0.264809
     7  C   -1.223192
     8  O   -0.530578
     9  H    0.563416
    10  H    0.264579
    11  H    0.348075
    12  H    0.456059
    13  H    0.428662
    14  H    0.542217
    15  H    0.476187
    16  H    0.617991
    17  H    0.178502
    18  H    0.505730
    19  H    0.381702
    20  H    0.542225
 Sum of APT charges =   0.00000
 APT charges with hydrogens summed into heavy atoms:
               1
     1  C    0.024487
     2  C   -0.033541
     3  C    0.187735
     4  C    0.267137
     5  O   -0.386515
     6  C    0.264809
     7  C    0.206465
     8  O   -0.530578
 Electronic spatial extent (au):  <R**2>=           1323.3456
 Charge=              0.0000 electrons
 Dipole moment (field-independent basis, Debye):
    X=             -0.8154    Y=              0.9284    Z=             -0.6898  Tot=              1.4151
 Quadrupole moment (field-independent basis, Debye-Ang):
   XX=            -47.5700   YY=            -49.2026   ZZ=            -49.0724
   XY=             -3.3191   XZ=             -0.6532   YZ=              2.2461
 Traceless Quadrupole moment (field-independent basis, Debye-Ang):
   XX=              1.0450   YY=             -0.5876   ZZ=             -0.4574
   XY=             -3.3191   XZ=             -0.6532   YZ=              2.2461
 Octapole moment (field-independent basis, Debye-Ang**2):
  XXX=             19.1562  YYY=             10.0125  ZZZ=              1.0595  XYY=              0.8476
  XXY=             -8.1309  XXZ=              1.1691  XZZ=              1.9843  YZZ=              2.6039
  YYZ=             -0.2947  XYZ=              1.8850
 Hexadecapole moment (field-independent basis, Debye-Ang**3):
 XXXX=          -1188.6700 YYYY=           -390.1983 ZZZZ=           -128.9513 XXXY=            -11.2748
 XXXZ=              1.8285 YYYX=             -4.3817 YYYZ=              2.1575 ZZZX=             -2.8907
 ZZZY=              0.0520 XXYY=           -277.3531 XXZZ=           -220.6658 YYZZ=            -85.2625
 XXYZ=              1.2330 YYXZ=              2.3168 ZZXY=             -0.6786
 N-N= 3.862502270034D+02 E-N=-1.672760797562D+03  KE= 3.826361307424D+02
  Exact polarizability:   0.000   0.000   0.000   0.000   0.000   0.000
 Approx polarizability: 119.762   0.465 120.110  -9.691 -12.388  87.297
                          Isotropic Fermi Contact Couplings
        Atom                 a.u.       MegaHertz       Gauss      10(-4) cm-1
     1  C(13)              0.00000       0.00000       0.00000       0.00000
     2  C(13)              0.00000       0.00000       0.00000       0.00000
     3  C(13)              0.00000       0.00000       0.00000       0.00000
     4  C(13)              0.00000       0.00000       0.00000       0.00000
     5  O(17)              0.00000       0.00000       0.00000       0.00000
     6  C(13)              0.00000       0.00000       0.00000       0.00000
     7  C(13)              0.00000       0.00000       0.00000       0.00000
     8  O(17)              0.00000       0.00000       0.00000       0.00000
     9  H(1)               0.00000       0.00000       0.00000       0.00000
    10  H(1)               0.00000       0.00000       0.00000       0.00000
    11  H(1)               0.00000       0.00000       0.00000       0.00000
    12  H(1)               0.00000       0.00000       0.00000       0.00000
    13  H(1)               0.00000       0.00000       0.00000       0.00000
    14  H(1)               0.00000       0.00000       0.00000       0.00000
    15  H(1)               0.00000       0.00000       0.00000       0.00000
    16  H(1)               0.00000       0.00000       0.00000       0.00000
    17  H(1)               0.00000       0.00000       0.00000       0.00000
    18  H(1)               0.00000       0.00000       0.00000       0.00000
    19  H(1)               0.00000       0.00000       0.00000       0.00000
    20  H(1)               0.00000       0.00000       0.00000       0.00000
 --------------------------------------------------------
       Center         ----  Spin Dipole Couplings  ----
                      3XX-RR        3YY-RR        3ZZ-RR
 --------------------------------------------------------
     1   Atom        0.000000      0.000000      0.000000
     2   Atom        0.000000      0.000000      0.000000
     3   Atom        0.000000      0.000000      0.000000
     4   Atom        0.000000      0.000000      0.000000
     5   Atom        0.000000      0.000000      0.000000
     6   Atom        0.000000      0.000000      0.000000
     7   Atom        0.000000      0.000000      0.000000
     8   Atom        0.000000      0.000000      0.000000
     9   Atom        0.000000      0.000000      0.000000
    10   Atom        0.000000      0.000000      0.000000
    11   Atom        0.000000      0.000000      0.000000
    12   Atom        0.000000      0.000000      0.000000
    13   Atom        0.000000      0.000000      0.000000
    14   Atom        0.000000      0.000000      0.000000
    15   Atom        0.000000      0.000000      0.000000
    16   Atom        0.000000      0.000000      0.000000
    17   Atom        0.000000      0.000000      0.000000
    18   Atom        0.000000      0.000000      0.000000
    19   Atom        0.000000      0.000000      0.000000
    20   Atom        0.000000      0.000000      0.000000
 --------------------------------------------------------
                        XY            XZ            YZ
 --------------------------------------------------------
     1   Atom        0.000000      0.000000      0.000000
     2   Atom        0.000000      0.000000      0.000000
     3   Atom        0.000000      0.000000      0.000000
     4   Atom        0.000000      0.000000      0.000000
     5   Atom        0.000000      0.000000      0.000000
     6   Atom        0.000000      0.000000      0.000000
     7   Atom        0.000000      0.000000      0.000000
     8   Atom        0.000000      0.000000      0.000000
     9   Atom        0.000000      0.000000      0.000000
    10   Atom        0.000000      0.000000      0.000000
    11   Atom        0.000000      0.000000      0.000000
    12   Atom        0.000000      0.000000      0.000000
    13   Atom        0.000000      0.000000      0.000000
    14   Atom        0.000000      0.000000      0.000000
    15   Atom        0.000000      0.000000      0.000000
    16   Atom        0.000000      0.000000      0.000000
    17   Atom        0.000000      0.000000      0.000000
    18   Atom        0.000000      0.000000      0.000000
    19   Atom        0.000000      0.000000      0.000000
    20   Atom        0.000000      0.000000      0.000000
 --------------------------------------------------------


 ---------------------------------------------------------------------------------
              Anisotropic Spin Dipole Couplings in Principal Axis System
 ---------------------------------------------------------------------------------

       Atom             a.u.   MegaHertz   Gauss  10(-4) cm-1        Axes

              Baa     0.0000     0.000     0.000     0.000  1.0000  0.0000  0.0000
     1 C(13)  Bbb     0.0000     0.000     0.000     0.000  0.0000  1.0000  0.0000
              Bcc     0.0000     0.000     0.000     0.000  0.0000  0.0000  1.0000
 
              Baa     0.0000     0.000     0.000     0.000  1.0000  0.0000  0.0000
     2 C(13)  Bbb     0.0000     0.000     0.000     0.000  0.0000  1.0000  0.0000
              Bcc     0.0000     0.000     0.000     0.000  0.0000  0.0000  1.0000
 
              Baa     0.0000     0.000     0.000     0.000  1.0000  0.0000  0.0000
     3 C(13)  Bbb     0.0000     0.000     0.000     0.000  0.0000  1.0000  0.0000
              Bcc     0.0000     0.000     0.000     0.000  0.0000  0.0000  1.0000
 
              Baa     0.0000     0.000     0.000     0.000  1.0000  0.0000  0.0000
     4 C(13)  Bbb     0.0000     0.000     0.000     0.000  0.0000  1.0000  0.0000
              Bcc     0.0000     0.000     0.000     0.000  0.0000  0.0000  1.0000
 
              Baa     0.0000     0.000     0.000     0.000  1.0000  0.0000  0.0000
     5 O(17)  Bbb     0.0000     0.000     0.000     0.000  0.0000  1.0000  0.0000
              Bcc     0.0000     0.000     0.000     0.000  0.0000  0.0000  1.0000
 
              Baa     0.0000     0.000     0.000     0.000  1.0000  0.0000  0.0000
     6 C(13)  Bbb     0.0000     0.000     0.000     0.000  0.0000  1.0000  0.0000
              Bcc     0.0000     0.000     0.000     0.000  0.0000  0.0000  1.0000
 
              Baa     0.0000     0.000     0.000     0.000  1.0000  0.0000  0.0000
     7 C(13)  Bbb     0.0000     0.000     0.000     0.000  0.0000  1.0000  0.0000
              Bcc     0.0000     0.000     0.000     0.000  0.0000  0.0000  1.0000
 
              Baa     0.0000     0.000     0.000     0.000  1.0000  0.0000  0.0000
     8 O(17)  Bbb     0.0000     0.000     0.000     0.000  0.0000  1.0000  0.0000
              Bcc     0.0000     0.000     0.000     0.000  0.0000  0.0000  1.0000
 
              Baa     0.0000     0.000     0.000     0.000  1.0000  0.0000  0.0000
     9 H(1)   Bbb     0.0000     0.000     0.000     0.000  0.0000  1.0000  0.0000
              Bcc     0.0000     0.000     0.000     0.000  0.0000  0.0000  1.0000
 
              Baa     0.0000     0.000     0.000     0.000  1.0000  0.0000  0.0000
    10 H(1)   Bbb     0.0000     0.000     0.000     0.000  0.0000  1.0000  0.0000
              Bcc     0.0000     0.000     0.000     0.000  0.0000  0.0000  1.0000
 
              Baa     0.0000     0.000     0.000     0.000  1.0000  0.0000  0.0000
    11 H(1)   Bbb     0.0000     0.000     0.000     0.000  0.0000  1.0000  0.0000
              Bcc     0.0000     0.000     0.000     0.000  0.0000  0.0000  1.0000
 
              Baa     0.0000     0.000     0.000     0.000  1.0000  0.0000  0.0000
    12 H(1)   Bbb     0.0000     0.000     0.000     0.000  0.0000  1.0000  0.0000
              Bcc     0.0000     0.000     0.000     0.000  0.0000  0.0000  1.0000
 
              Baa     0.0000     0.000     0.000     0.000  1.0000  0.0000  0.0000
    13 H(1)   Bbb     0.0000     0.000     0.000     0.000  0.0000  1.0000  0.0000
              Bcc     0.0000     0.000     0.000     0.000  0.0000  0.0000  1.0000
 
              Baa     0.0000     0.000     0.000     0.000  1.0000  0.0000  0.0000
    14 H(1)   Bbb     0.0000     0.000     0.000     0.000  0.0000  1.0000  0.0000
              Bcc     0.0000     0.000     0.000     0.000  0.0000  0.0000  1.0000
 
              Baa     0.0000     0.000     0.000     0.000  1.0000  0.0000  0.0000
    15 H(1)   Bbb     0.0000     0.000     0.000     0.000  0.0000  1.0000  0.0000
              Bcc     0.0000     0.000     0.000     0.000  0.0000  0.0000  1.0000
 
              Baa     0.0000     0.000     0.000     0.000  1.0000  0.0000  0.0000
    16 H(1)   Bbb     0.0000     0.000     0.000     0.000  0.0000  1.0000  0.0000
              Bcc     0.0000     0.000     0.000     0.000  0.0000  0.0000  1.0000
 
              Baa     0.0000     0.000     0.000     0.000  1.0000  0.0000  0.0000
    17 H(1)   Bbb     0.0000     0.000     0.000     0.000  0.0000  1.0000  0.0000
              Bcc     0.0000     0.000     0.000     0.000  0.0000  0.0000  1.0000
 
              Baa     0.0000     0.000     0.000     0.000  1.0000  0.0000  0.0000
    18 H(1)   Bbb     0.0000     0.000     0.000     0.000  0.0000  1.0000  0.0000
              Bcc     0.0000     0.000     0.000     0.000  0.0000  0.0000  1.0000
 
              Baa     0.0000     0.000     0.000     0.000  1.0000  0.0000  0.0000
    19 H(1)   Bbb     0.0000     0.000     0.000     0.000  0.0000  1.0000  0.0000
              Bcc     0.0000     0.000     0.000     0.000  0.0000  0.0000  1.0000
 
              Baa     0.0000     0.000     0.000     0.000  1.0000  0.0000  0.0000
    20 H(1)   Bbb     0.0000     0.000     0.000     0.000  0.0000  1.0000  0.0000
              Bcc     0.0000     0.000     0.000     0.000  0.0000  0.0000  1.0000
 

 ---------------------------------------------------------------------------------

 No NMR shielding tensors so no spin-rotation constants.
 Leave Link  601 at Mon Nov 11 15:38:38 2019, MaxMem=  1835008000 cpu:         5.4
 (Enter /cm/shared/c3ddb/gaussian/09.d01/g09/l701.exe)
 Compute integral second derivatives.
 ... and contract with generalized density number  0.
 Leave Link  701 at Mon Nov 11 15:38:39 2019, MaxMem=  1835008000 cpu:         3.2
 (Enter /cm/shared/c3ddb/gaussian/09.d01/g09/l702.exe)
 L702 exits ... SP integral derivatives will be done elsewhere.
 Leave Link  702 at Mon Nov 11 15:38:39 2019, MaxMem=  1835008000 cpu:         0.2
 (Enter /cm/shared/c3ddb/gaussian/09.d01/g09/l703.exe)
 Compute integral second derivatives, UseDBF=F ICtDFT=           0.
 Integral derivatives from FoFJK, PRISM(SPDF).
 Calling FoFJK, ICntrl=    100147 FMM=F ISym2X=0 I1Cent= 0 IOpClX= 1 NMat=1 NMatS=1 NMatT=0.
 FoFJK:  IHMeth= 1 ICntrl=  100147 DoSepK=F KAlg= 0 I1Cent=   0 FoldK=F
 IRaf=         0 NMat=   1 IRICut=       1 DoRegI=T DoRafI=F ISym2E= 0.
 FoFCou: FMM=F IPFlag=           0 FMFlag=      100000 FMFlg1=         800
         NFxFlg=           0 DoJE=F BraDBF=F KetDBF=F FulRan=T
         wScrn=  0.000000 ICntrl=  100147 IOpCl=  1 I1Cent=           0 NGrid=           0
         NMat0=    1 NMatS0=      1 NMatT0=    0 NMatD0=    1 NMtDS0=    0 NMtDT0=    0
 Symmetry not used in FoFCou.
 Leave Link  703 at Mon Nov 11 15:39:21 2019, MaxMem=  1835008000 cpu:       293.9
 (Enter /cm/shared/c3ddb/gaussian/09.d01/g09/l716.exe)
 Dipole        =-3.20804700D-01 3.65247654D-01-2.71385761D-01
 Polarizability= 0.00000000D+00 0.00000000D+00 0.00000000D+00
                 0.00000000D+00 0.00000000D+00 0.00000000D+00
 -------------------------------------------------------------------
 Center     Atomic                   Forces (Hartrees/Bohr)
 Number     Number              X              Y              Z
 -------------------------------------------------------------------
      1        6           0.000006843   -0.000008437   -0.000003828
      2        6           0.000002377   -0.000009127   -0.000000741
      3        6          -0.000006002    0.000003729   -0.000004255
      4        6           0.000007576   -0.000002385   -0.000000429
      5        8          -0.000007503    0.000009838   -0.000005511
      6        6          -0.000003345   -0.000002132    0.000000426
      7        6           0.000000790    0.000002644   -0.000005637
      8        8          -0.000007937    0.000009005    0.000002438
      9        1          -0.000002731   -0.000003762   -0.000001215
     10        1          -0.000000358   -0.000005313    0.000000813
     11        1           0.000009480   -0.000001692    0.000000036
     12        1           0.000000688   -0.000001897   -0.000001038
     13        1          -0.000003501   -0.000002128   -0.000002358
     14        1          -0.000005338    0.000001088   -0.000004779
     15        1          -0.000000339   -0.000002592    0.000006482
     16        1           0.000003912   -0.000005227    0.000005175
     17        1          -0.000000138    0.000000039    0.000003103
     18        1           0.000003706    0.000005233    0.000003058
     19        1           0.000002728    0.000005582    0.000007582
     20        1          -0.000000906    0.000007534    0.000000677
 -------------------------------------------------------------------
 Cartesian Forces:  Max     0.000009838 RMS     0.000004654
 Z-matrix is all fixed cartesians, so copy forces.
 Leave Link  716 at Mon Nov 11 15:39:21 2019, MaxMem=  1835008000 cpu:         0.3
 (Enter /cm/shared/c3ddb/gaussian/09.d01/g09/l123.exe)
 IRC-IRC-IRC-IRC-IRC-IRC-IRC-IRC-IRC-IRC-IRC-IRC-IRC-IRC-IRC-IRC-IRC-IRC
          ******** Start new reaction path calculation ********
 Current Structure is TS -> form Hessian eigenvectors.
                            Diagonalizing Hessian.
 Supplied step size of   0.1000 bohr.
    Integration on MW PES will use step size of   0.1158 sqrt(amu)*bohr.
 Point Number:   0          Path Number:   1
 Calculating another point on the path.
 Point Number  1 in FORWARD path direction.
 Using LQA Reaction Path Following.
 IRC-IRC-IRC-IRC-IRC-IRC-IRC-IRC-IRC-IRC-IRC-IRC-IRC-IRC-IRC-IRC-IRC-IRC
 Leave Link  123 at Mon Nov 11 15:39:22 2019, MaxMem=  1835008000 cpu:         4.2
 (Enter /cm/shared/c3ddb/gaussian/09.d01/g09/l202.exe)
                          Input orientation:                          
 ---------------------------------------------------------------------
 Center     Atomic      Atomic             Coordinates (Angstroms)
 Number     Number       Type             X           Y           Z
 ---------------------------------------------------------------------
      1          6           0       -2.726356   -1.342997   -0.096818
      2          6           0       -2.267481    0.042880   -0.566047
      3          6           0       -1.327091    0.721880    0.429993
      4          6           0       -0.450524    1.739984    0.006071
      5          8           0        1.448144    1.026362   -0.188878
      6          6           0        1.586939   -0.206775    0.083279
      7          6           0        2.844607   -0.911084   -0.388070
      8          8           0        0.722223   -0.900534    0.711224
      9          1           0       -3.148299    0.675578   -0.747542
     10          1           0       -1.753608   -0.050956   -1.532689
     11          1           0       -0.405755   -0.111765    0.667952
     12          1           0       -1.728618    0.855840    1.440032
     13          1           0       -0.368696    2.017776   -1.039892
     14          1           0       -0.072868    2.475665    0.706850
     15          1           0       -3.254147   -1.279441    0.862798
     16          1           0       -3.410048   -1.799237   -0.821502
     17          1           0       -1.870909   -2.013802    0.037857
     18          1           0        3.180582   -1.616856    0.376669
     19          1           0        2.616751   -1.484239   -1.294830
     20          1           0        3.631180   -0.188113   -0.616137
 ---------------------------------------------------------------------
                    Distance matrix (angstroms):
                    1          2          3          4          5
     1  C    0.000000
     2  C    1.533427   0.000000
     3  C    2.549351   1.528878   0.000000
     4  C    3.833376   2.551237   1.408763   0.000000
     5  O    4.800916   3.862041   2.859657   2.037695   0.000000
     6  C    4.464073   3.916695   3.078016   2.819058   1.270418
     7  C    5.595266   5.203379   4.553994   4.247516   2.396556
     8  O    3.569511   3.385229   2.628879   2.974039   2.247237
     9  H    2.162435   1.099585   2.169224   2.996478   4.643538
    10  H    2.162715   1.098758   2.152049   2.696901   3.635610
    11  H    2.736055   2.238904   1.265088   1.966993   2.338040
    12  H    2.862216   2.230612   1.095147   2.114586   3.574107
    13  H    4.212214   2.780310   2.181383   1.085313   2.237864
    14  H    4.719011   3.514972   2.173818   1.083947   2.283918
    15  H    1.097025   2.182576   2.811787   4.208468   5.341750
    16  H    1.095790   2.182685   3.501569   4.687189   5.655639
    17  H    1.095402   2.179888   2.816641   4.013653   4.506675
    18  H    5.932210   5.772766   5.078548   4.958896   3.210575
    19  H    5.477589   5.169036   4.836927   4.636392   2.981927
    20  H    6.482416   5.903394   5.148488   4.556864   2.534393
                    6          7          8          9         10
     6  C    0.000000
     7  C    1.516558   0.000000
     8  O    1.274107   2.390203   0.000000
     9  H    4.887871   6.209801   4.426406   0.000000
    10  H    3.714146   4.815968   3.447704   1.757689   0.000000
    11  H    2.078869   3.509835   1.377085   3.185134   2.581322
    12  H    3.736689   5.232433   3.102037   2.614091   3.108050
    13  H    3.167751   4.396408   3.573939   3.100509   2.537811
    14  H    3.215476   4.602235   3.468559   3.848876   3.771503
    15  H    5.019399   6.236598   3.997257   2.535054   3.082069
    16  H    5.322071   6.332250   4.498064   2.489717   2.511188
    17  H    3.901810   4.861429   2.901228   3.079179   2.516573
    18  H    2.148047   1.093536   2.582358   6.824503   5.517601
    19  H    2.142804   1.096648   2.820319   6.180625   4.605530
    20  H    2.160660   1.092427   3.275890   6.835537   5.463956
                   11         12         13         14         15
    11  H    0.000000
    12  H    1.811721   0.000000
    13  H    2.730027   3.057696   0.000000
    14  H    2.609046   2.429587   1.829832   0.000000
    15  H    3.084602   2.686981   4.776787   4.923989   0.000000
    16  H    3.753906   3.871845   4.885397   5.634485   1.769565
    17  H    2.482225   3.197060   4.435291   4.882194   1.770074
    18  H    3.900251   5.598680   5.273952   5.238577   6.461881
    19  H    3.856389   5.642488   4.608904   5.188603   6.258174
    20  H    4.236927   5.834818   4.587431   4.750366   7.126427
                   16         17         18         19         20
    16  H    0.000000
    17  H    1.775806   0.000000
    18  H    6.701140   5.078378   0.000000
    19  H    6.053559   4.711219   1.769011   0.000000
    20  H    7.226118   5.833852   1.797222   1.780346   0.000000
 Symmetry turned off by external request.
 Stoichiometry    C6H12O2
 Framework group  C1[X(C6H12O2)]
 Deg. of freedom    54
 Full point group                 C1      NOp   1
 Rotational constants (GHZ):      3.2116718      1.1387995      0.9249866
 Leave Link  202 at Mon Nov 11 15:39:22 2019, MaxMem=  1835008000 cpu:         0.3
 (Enter /cm/shared/c3ddb/gaussian/09.d01/g09/l301.exe)
 Standard basis: 6-31G(d) (6D, 7F)
 Ernie: Thresh=  0.10000D-02 Tol=  0.10000D-05 Strict=F.
   144 basis functions,   272 primitive gaussians,   144 cartesian basis functions
    32 alpha electrons       32 beta electrons
       nuclear repulsion energy       386.1970307777 Hartrees.
 IExCor=  402 DFT=T Ex+Corr=B3LYP ExCW=0 ScaHFX=  0.200000
 ScaDFX=  0.800000  0.720000  1.000000  0.810000 ScalE2=  1.000000  1.000000
 IRadAn=      0 IRanWt=     -1 IRanGd=            0 ICorTp=0 IEmpDi=  4
 NAtoms=   20 NActive=   20 NUniq=   20 SFac= 1.00D+00 NAtFMM=   60 NAOKFM=F Big=F
 Integral buffers will be    131072 words long.
 Raffenetti 2 integral format.
 Two-electron integral symmetry is turned off.
 Leave Link  301 at Mon Nov 11 15:39:22 2019, MaxMem=  1835008000 cpu:         0.3
 (Enter /cm/shared/c3ddb/gaussian/09.d01/g09/l302.exe)
 NPDir=0 NMtPBC=     1 NCelOv=     1 NCel=       1 NClECP=     1 NCelD=      1
         NCelK=      1 NCelE2=     1 NClLst=     1 CellRange=     0.0.
 One-electron integrals computed using PRISM.
 NBasis=   144 RedAO= T EigKep=  3.26D-03  NBF=   144
 NBsUse=   144 1.00D-06 EigRej= -1.00D+00 NBFU=   144
 Precomputing XC quadrature grid using
 IXCGrd= 4 IRadAn=           0 IRanWt=          -1 IRanGd=           0 AccXCQ= 0.00D+00.
 Generated NRdTot=       0 NPtTot=           0 NUsed=           0 NTot=          32
 NSgBfM=   144   144   144   144   144 MxSgAt=    20 MxSgA2=    20.
 Leave Link  302 at Mon Nov 11 15:39:23 2019, MaxMem=  1835008000 cpu:         6.7
 (Enter /cm/shared/c3ddb/gaussian/09.d01/g09/l303.exe)
 DipDrv:  MaxL=1.
 Leave Link  303 at Mon Nov 11 15:39:23 2019, MaxMem=  1835008000 cpu:         0.9
 (Enter /cm/shared/c3ddb/gaussian/09.d01/g09/l401.exe)
 Initial guess from the checkpoint file:  "check.chk"
 B after Tr=    -0.096286   -0.036899   -0.028679
         Rot=    1.000000    0.000082    0.000042    0.000011 Ang=   0.01 deg.
 Guess basis will be translated and rotated to current coordinates.
 JPrj=2 DoOrth=T DoCkMO=T.
 Initial guess <Sx>= 0.0000 <Sy>= 0.0000 <Sz>= 0.0000 <S**2>= 0.0000 S= 0.0000
 Generating alternative initial guess.
 ExpMin= 1.61D-01 ExpMax= 5.48D+03 ExpMxC= 8.25D+02 IAcc=1 IRadAn=         1 AccDes= 0.00D+00
 Harris functional with IExCor=  402 and IRadAn=       1 diagonalized for initial guess.
 HarFok:  IExCor=  402 AccDes= 0.00D+00 IRadAn=         1 IDoV= 1 UseB2=F ITyADJ=14
 ICtDFT=  3500011 ScaDFX=  1.000000  1.000000  1.000000  1.000000
 FoFCou: FMM=F IPFlag=           0 FMFlag=      100000 FMFlg1=           0
         NFxFlg=           0 DoJE=T BraDBF=F KetDBF=T FulRan=T
         wScrn=  0.000000 ICntrl=     500 IOpCl=  0 I1Cent=   200000004 NGrid=           0
         NMat0=    1 NMatS0=      1 NMatT0=    0 NMatD0=    1 NMtDS0=    0 NMtDT0=    0
 Symmetry not used in FoFCou.
 Harris En= -386.322224913215    
 Leave Link  401 at Mon Nov 11 15:39:26 2019, MaxMem=  1835008000 cpu:        14.3
 (Enter /cm/shared/c3ddb/gaussian/09.d01/g09/l502.exe)
 UHF open shell SCF:
 Using DIIS extrapolation, IDIIS=  1040.
 Two-electron integral symmetry not used.
 Keep R1 and R2 ints in memory in canonical form, NReq=110611094.
 IVT=       82814 IEndB=       82814 NGot=  1835008000 MDV=  1725921147
 LenX=  1725921147 LenY=  1725899970
 Requested convergence on RMS density matrix=1.00D-08 within 128 cycles.
 Requested convergence on MAX density matrix=1.00D-06.
 Requested convergence on             energy=1.00D-06.
 No special actions if energy rises.
 FoFCou: FMM=F IPFlag=           0 FMFlag=           0 FMFlg1=           0
         NFxFlg=           0 DoJE=F BraDBF=F KetDBF=F FulRan=T
         wScrn=  0.000000 ICntrl=     600 IOpCl=  0 I1Cent=           0 NGrid=           0
         NMat0=    1 NMatS0=  10440 NMatT0=    0 NMatD0=    1 NMtDS0=    0 NMtDT0=    0
 Symmetry not used in FoFCou.
 Integral accuracy reduced to 1.0D-05 until final iterations.

 Cycle   1  Pass 0  IDiag  1:
 E= -386.250618710629    
 DIIS: error= 1.25D-03 at cycle   1 NSaved=   1.
 NSaved= 1 IEnMin= 1 EnMin= -386.250618710629     IErMin= 1 ErrMin= 1.25D-03
 ErrMax= 1.25D-03  0.00D+00 EMaxC= 1.00D-01 BMatC= 2.62D-03 BMatP= 2.62D-03
 IDIUse=3 WtCom= 9.88D-01 WtEn= 1.25D-02
 Coeff-Com:  0.100D+01
 Coeff-En:   0.100D+01
 Coeff:      0.100D+01
 Gap=     1.682 Goal=   None    Shift=    0.000
 Gap=     1.682 Goal=   None    Shift=    0.000
 GapD=    1.682 DampG=2.000 DampE=1.000 DampFc=2.0000 IDamp=-1.
 RMSDP=5.01D-04 MaxDP=9.48D-03              OVMax= 3.37D-02

 Cycle   2  Pass 0  IDiag  1:
 E= -386.251822949501     Delta-E=       -0.001204238872 Rises=F Damp=F
 DIIS: error= 1.05D-03 at cycle   2 NSaved=   2.
 NSaved= 2 IEnMin= 2 EnMin= -386.251822949501     IErMin= 2 ErrMin= 1.05D-03
 ErrMax= 1.05D-03  0.00D+00 EMaxC= 1.00D-01 BMatC= 1.47D-03 BMatP= 2.62D-03
 IDIUse=3 WtCom= 9.90D-01 WtEn= 1.05D-02
 Coeff-Com:  0.388D+00 0.612D+00
 Coeff-En:   0.000D+00 0.100D+01
 Coeff:      0.384D+00 0.616D+00
 Gap=     0.179 Goal=   None    Shift=    0.000
 Gap=     0.179 Goal=   None    Shift=    0.000
 RMSDP=2.00D-04 MaxDP=5.05D-03 DE=-1.20D-03 OVMax= 8.28D-03

 Cycle   3  Pass 0  IDiag  1:
 E= -386.252051091282     Delta-E=       -0.000228141781 Rises=F Damp=F
 DIIS: error= 6.43D-04 at cycle   3 NSaved=   3.
 NSaved= 3 IEnMin= 3 EnMin= -386.252051091282     IErMin= 3 ErrMin= 6.43D-04
 ErrMax= 6.43D-04  0.00D+00 EMaxC= 1.00D-01 BMatC= 5.14D-04 BMatP= 1.47D-03
 IDIUse=3 WtCom= 9.94D-01 WtEn= 6.43D-03
 Coeff-Com: -0.903D-02 0.364D+00 0.645D+00
 Coeff-En:   0.000D+00 0.259D+00 0.741D+00
 Coeff:     -0.897D-02 0.364D+00 0.645D+00
 Gap=     0.179 Goal=   None    Shift=    0.000
 Gap=     0.179 Goal=   None    Shift=    0.000
 RMSDP=9.37D-05 MaxDP=2.75D-03 DE=-2.28D-04 OVMax= 6.20D-03

 Cycle   4  Pass 0  IDiag  1:
 E= -386.252163142272     Delta-E=       -0.000112050990 Rises=F Damp=F
 DIIS: error= 2.15D-04 at cycle   4 NSaved=   4.
 NSaved= 4 IEnMin= 4 EnMin= -386.252163142272     IErMin= 4 ErrMin= 2.15D-04
 ErrMax= 2.15D-04  0.00D+00 EMaxC= 1.00D-01 BMatC= 6.47D-05 BMatP= 5.14D-04
 IDIUse=3 WtCom= 9.98D-01 WtEn= 2.15D-03
 Coeff-Com: -0.244D-01 0.160D+00 0.369D+00 0.495D+00
 Coeff-En:   0.000D+00 0.000D+00 0.000D+00 0.100D+01
 Coeff:     -0.244D-01 0.160D+00 0.368D+00 0.497D+00
 Gap=     0.179 Goal=   None    Shift=    0.000
 Gap=     0.179 Goal=   None    Shift=    0.000
 RMSDP=2.80D-05 MaxDP=1.15D-03 DE=-1.12D-04 OVMax= 1.43D-03

 Cycle   5  Pass 0  IDiag  1:
 E= -386.252173300552     Delta-E=       -0.000010158280 Rises=F Damp=F
 DIIS: error= 1.31D-04 at cycle   5 NSaved=   5.
 NSaved= 5 IEnMin= 5 EnMin= -386.252173300552     IErMin= 5 ErrMin= 1.31D-04
 ErrMax= 1.31D-04  0.00D+00 EMaxC= 1.00D-01 BMatC= 1.45D-05 BMatP= 6.47D-05
 IDIUse=3 WtCom= 9.99D-01 WtEn= 1.31D-03
 Coeff-Com: -0.113D-01 0.301D-01 0.123D+00 0.335D+00 0.523D+00
 Coeff-En:   0.000D+00 0.000D+00 0.000D+00 0.177D+00 0.823D+00
 Coeff:     -0.113D-01 0.301D-01 0.123D+00 0.335D+00 0.523D+00
 Gap=     0.179 Goal=   None    Shift=    0.000
 Gap=     0.179 Goal=   None    Shift=    0.000
 RMSDP=1.62D-05 MaxDP=5.15D-04 DE=-1.02D-05 OVMax= 1.10D-03

 Cycle   6  Pass 0  IDiag  1:
 E= -386.252175765553     Delta-E=       -0.000002465001 Rises=F Damp=F
 DIIS: error= 7.97D-05 at cycle   6 NSaved=   6.
 NSaved= 6 IEnMin= 6 EnMin= -386.252175765553     IErMin= 6 ErrMin= 7.97D-05
 ErrMax= 7.97D-05  0.00D+00 EMaxC= 1.00D-01 BMatC= 3.15D-06 BMatP= 1.45D-05
 IDIUse=1 WtCom= 1.00D+00 WtEn= 0.00D+00
 Coeff-Com: -0.633D-02-0.696D-03 0.440D-01 0.179D+00 0.390D+00 0.394D+00
 Coeff:     -0.633D-02-0.696D-03 0.440D-01 0.179D+00 0.390D+00 0.394D+00
 Gap=     0.179 Goal=   None    Shift=    0.000
 Gap=     0.179 Goal=   None    Shift=    0.000
 RMSDP=5.54D-06 MaxDP=1.69D-04 DE=-2.47D-06 OVMax= 2.86D-04

 Initial convergence to 1.0D-05 achieved.  Increase integral accuracy.
 Cycle   7  Pass 1  IDiag  1:
 E= -386.252198988388     Delta-E=       -0.000023222836 Rises=F Damp=F
 DIIS: error= 1.17D-05 at cycle   1 NSaved=   1.
 NSaved= 1 IEnMin= 1 EnMin= -386.252198988388     IErMin= 1 ErrMin= 1.17D-05
 ErrMax= 1.17D-05  0.00D+00 EMaxC= 1.00D-01 BMatC= 2.31D-07 BMatP= 2.31D-07
 IDIUse=1 WtCom= 1.00D+00 WtEn= 0.00D+00
 Coeff-Com:  0.100D+01
[...]
    10  H   -0.000005   0.000000
    11  H   -0.000060  -0.000259
    12  H    0.000000   0.000000
    13  H    0.000006   0.000003
    14  H    0.000001   0.000000
    15  H    0.000000   0.000000
    16  H    0.000000   0.000000
    17  H    0.000003   0.000000
    18  H   -0.023612  -0.022836
    19  H    0.524136  -0.021101
    20  H   -0.021101   0.519251
          Atomic-Atomic Spin Densities.
               1          2          3          4          5          6
     1  C    0.000000   0.000000   0.000000   0.000000   0.000000   0.000000
     2  C    0.000000   0.000000   0.000000   0.000000   0.000000   0.000000
     3  C    0.000000   0.000000   0.000000   0.000000   0.000000   0.000000
     4  C    0.000000   0.000000   0.000000   0.000000   0.000000   0.000000
     5  O    0.000000   0.000000   0.000000   0.000000   0.000000   0.000000
     6  C    0.000000   0.000000   0.000000   0.000000   0.000000   0.000000
     7  C    0.000000   0.000000   0.000000   0.000000   0.000000   0.000000
     8  O    0.000000   0.000000   0.000000   0.000000   0.000000   0.000000
     9  H    0.000000   0.000000   0.000000   0.000000   0.000000   0.000000
    10  H    0.000000   0.000000   0.000000   0.000000   0.000000   0.000000
    11  H    0.000000   0.000000   0.000000   0.000000   0.000000   0.000000
    12  H    0.000000   0.000000   0.000000   0.000000   0.000000   0.000000
    13  H    0.000000   0.000000   0.000000   0.000000   0.000000   0.000000
    14  H    0.000000   0.000000   0.000000   0.000000   0.000000   0.000000
    15  H    0.000000   0.000000   0.000000   0.000000   0.000000   0.000000
    16  H    0.000000   0.000000   0.000000   0.000000   0.000000   0.000000
    17  H    0.000000   0.000000   0.000000   0.000000   0.000000   0.000000
    18  H    0.000000   0.000000   0.000000   0.000000   0.000000   0.000000
    19  H    0.000000   0.000000   0.000000   0.000000   0.000000   0.000000
    20  H    0.000000   0.000000   0.000000   0.000000   0.000000   0.000000
               7          8          9         10         11         12
     1  C    0.000000   0.000000   0.000000   0.000000   0.000000   0.000000
     2  C    0.000000   0.000000   0.000000   0.000000   0.000000   0.000000
     3  C    0.000000   0.000000   0.000000   0.000000   0.000000   0.000000
     4  C    0.000000   0.000000   0.000000   0.000000   0.000000   0.000000
     5  O    0.000000   0.000000   0.000000   0.000000   0.000000   0.000000
     6  C    0.000000   0.000000   0.000000   0.000000   0.000000   0.000000
     7  C    0.000000   0.000000   0.000000   0.000000   0.000000   0.000000
     8  O    0.000000   0.000000   0.000000   0.000000   0.000000   0.000000
     9  H    0.000000   0.000000   0.000000   0.000000   0.000000   0.000000
    10  H    0.000000   0.000000   0.000000   0.000000   0.000000   0.000000
    11  H    0.000000   0.000000   0.000000   0.000000   0.000000   0.000000
    12  H    0.000000   0.000000   0.000000   0.000000   0.000000   0.000000
    13  H    0.000000   0.000000   0.000000   0.000000   0.000000   0.000000
    14  H    0.000000   0.000000   0.000000   0.000000   0.000000   0.000000
    15  H    0.000000   0.000000   0.000000   0.000000   0.000000   0.000000
    16  H    0.000000   0.000000   0.000000   0.000000   0.000000   0.000000
    17  H    0.000000   0.000000   0.000000   0.000000   0.000000   0.000000
    18  H    0.000000   0.000000   0.000000   0.000000   0.000000   0.000000
    19  H    0.000000   0.000000   0.000000   0.000000   0.000000   0.000000
    20  H    0.000000   0.000000   0.000000   0.000000   0.000000   0.000000
              13         14         15         16         17         18
     1  C    0.000000   0.000000   0.000000   0.000000   0.000000   0.000000
     2  C    0.000000   0.000000   0.000000   0.000000   0.000000   0.000000
     3  C    0.000000   0.000000   0.000000   0.000000   0.000000   0.000000
     4  C    0.000000   0.000000   0.000000   0.000000   0.000000   0.000000
     5  O    0.000000   0.000000   0.000000   0.000000   0.000000   0.000000
     6  C    0.000000   0.000000   0.000000   0.000000   0.000000   0.000000
     7  C    0.000000   0.000000   0.000000   0.000000   0.000000   0.000000
     8  O    0.000000   0.000000   0.000000   0.000000   0.000000   0.000000
     9  H    0.000000   0.000000   0.000000   0.000000   0.000000   0.000000
    10  H    0.000000   0.000000   0.000000   0.000000   0.000000   0.000000
    11  H    0.000000   0.000000   0.000000   0.000000   0.000000   0.000000
    12  H    0.000000   0.000000   0.000000   0.000000   0.000000   0.000000
    13  H    0.000000   0.000000   0.000000   0.000000   0.000000   0.000000
    14  H    0.000000   0.000000   0.000000   0.000000   0.000000   0.000000
    15  H    0.000000   0.000000   0.000000   0.000000   0.000000   0.000000
    16  H    0.000000   0.000000   0.000000   0.000000   0.000000   0.000000
    17  H    0.000000   0.000000   0.000000   0.000000   0.000000   0.000000
    18  H    0.000000   0.000000   0.000000   0.000000   0.000000   0.000000
    19  H    0.000000   0.000000   0.000000   0.000000   0.000000   0.000000
    20  H    0.000000   0.000000   0.000000   0.000000   0.000000   0.000000
              19         20
     1  C    0.000000   0.000000
     2  C    0.000000   0.000000
     3  C    0.000000   0.000000
     4  C    0.000000   0.000000
     5  O    0.000000   0.000000
     6  C    0.000000   0.000000
     7  C    0.000000   0.000000
     8  O    0.000000   0.000000
     9  H    0.000000   0.000000
    10  H    0.000000   0.000000
    11  H    0.000000   0.000000
    12  H    0.000000   0.000000
    13  H    0.000000   0.000000
    14  H    0.000000   0.000000
    15  H    0.000000   0.000000
    16  H    0.000000   0.000000
    17  H    0.000000   0.000000
    18  H    0.000000   0.000000
    19  H    0.000000   0.000000
    20  H    0.000000   0.000000
 Mulliken charges and spin densities:
               1          2
     1  C   -0.458034   0.000000
     2  C   -0.265626   0.000000
     3  C   -0.210737   0.000000
     4  C   -0.236382   0.000000
     5  O   -0.456530   0.000000
     6  C    0.572056   0.000000
     7  C   -0.516587   0.000000
     8  O   -0.583963   0.000000
     9  H    0.150851   0.000000
    10  H    0.139880   0.000000
    11  H    0.431612   0.000000
    12  H    0.136503   0.000000
    13  H    0.154948   0.000000
    14  H    0.158404   0.000000
    15  H    0.143505   0.000000
    16  H    0.145079   0.000000
    17  H    0.154989   0.000000
    18  H    0.176140   0.000000
    19  H    0.181582   0.000000
    20  H    0.182308   0.000000
 Sum of Mulliken charges =   0.00000   0.00000
 Mulliken charges and spin densities with hydrogens summed into heavy atoms:
               1          2
     1  C   -0.014461   0.000000
     2  C    0.025105   0.000000
     3  C   -0.074233   0.000000
     4  C    0.076971   0.000000
     5  O   -0.456530   0.000000
     6  C    0.572056   0.000000
     7  C    0.023443   0.000000
     8  O   -0.152351   0.000000
 APT charges:
               1
     1  C   -1.255110
     2  C   -0.850715
     3  C   -0.526918
     4  C   -0.716049
     5  O   -0.304875
     6  C    0.176024
     7  C   -1.238183
     8  O   -0.452501
     9  H    0.582781
    10  H    0.255006
    11  H    0.362505
    12  H    0.386710
    13  H    0.368874
    14  H    0.472494
    15  H    0.479576
    16  H    0.630220
    17  H    0.176745
    18  H    0.508970
    19  H    0.386437
    20  H    0.558011
 Sum of APT charges =   0.00000
 APT charges with hydrogens summed into heavy atoms:
               1
     1  C    0.031430
     2  C   -0.012929
     3  C   -0.140208
     4  C    0.125318
     5  O   -0.304875
     6  C    0.176024
     7  C    0.215236
     8  O   -0.089996
 Electronic spatial extent (au):  <R**2>=           1363.5905
 Charge=              0.0000 electrons
 Dipole moment (field-independent basis, Debye):
    X=             -0.1695    Y=             -0.7874    Z=             -0.2073  Tot=              0.8317
 Quadrupole moment (field-independent basis, Debye-Ang):
   XX=            -46.7656   YY=            -51.9129   ZZ=            -48.2116
   XY=             -2.6310   XZ=             -0.4341   YZ=              1.7317
 Traceless Quadrupole moment (field-independent basis, Debye-Ang):
   XX=              2.1978   YY=             -2.9495   ZZ=              0.7518
   XY=             -2.6310   XZ=             -0.4341   YZ=              1.7317
 Octapole moment (field-independent basis, Debye-Ang**2):
  XXX=             29.0209  YYY=              6.0224  ZZZ=              3.7408  XYY=              7.0960
  XXY=             -9.4180  XXZ=              0.3205  XZZ=              5.1648  YZZ=              2.4832
  YYZ=             -0.2493  XYZ=              2.3706
 Hexadecapole moment (field-independent basis, Debye-Ang**3):
 XXXX=          -1212.0502 YYYY=           -423.2262 ZZZZ=           -128.6415 XXXY=             -0.6974
 XXXZ=              3.0456 YYYX=             10.6147 YYYZ=             -0.2717 ZZZX=             -2.6471
 ZZZY=             -1.6274 XXYY=           -288.7834 XXZZ=           -226.1732 YYZZ=            -89.4026
 XXYZ=              0.4176 YYXZ=              3.1863 ZZXY=              3.1667
 N-N= 3.822568727773D+02 E-N=-1.664718959990D+03  KE= 3.828737738752D+02
  Exact polarizability:   0.000   0.000   0.000   0.000   0.000   0.000
 Approx polarizability:  99.699  12.573 112.857  -7.136 -10.441  85.041
                          Isotropic Fermi Contact Couplings
        Atom                 a.u.       MegaHertz       Gauss      10(-4) cm-1
     1  C(13)              0.00000       0.00000       0.00000       0.00000
     2  C(13)              0.00000       0.00000       0.00000       0.00000
     3  C(13)              0.00000       0.00000       0.00000       0.00000
     4  C(13)              0.00000       0.00000       0.00000       0.00000
     5  O(17)              0.00000       0.00000       0.00000       0.00000
     6  C(13)              0.00000       0.00000       0.00000       0.00000
     7  C(13)              0.00000       0.00000       0.00000       0.00000
     8  O(17)              0.00000       0.00000       0.00000       0.00000
     9  H(1)               0.00000       0.00000       0.00000       0.00000
    10  H(1)               0.00000       0.00000       0.00000       0.00000
    11  H(1)               0.00000       0.00000       0.00000       0.00000
    12  H(1)               0.00000       0.00000       0.00000       0.00000
    13  H(1)               0.00000       0.00000       0.00000       0.00000
    14  H(1)               0.00000       0.00000       0.00000       0.00000
    15  H(1)               0.00000       0.00000       0.00000       0.00000
    16  H(1)               0.00000       0.00000       0.00000       0.00000
    17  H(1)               0.00000       0.00000       0.00000       0.00000
    18  H(1)               0.00000       0.00000       0.00000       0.00000
    19  H(1)               0.00000       0.00000       0.00000       0.00000
    20  H(1)               0.00000       0.00000       0.00000       0.00000
 --------------------------------------------------------
       Center         ----  Spin Dipole Couplings  ----
                      3XX-RR        3YY-RR        3ZZ-RR
 --------------------------------------------------------
     1   Atom        0.000000      0.000000      0.000000
     2   Atom        0.000000      0.000000      0.000000
     3   Atom        0.000000      0.000000      0.000000
     4   Atom        0.000000      0.000000      0.000000
     5   Atom        0.000000      0.000000      0.000000
     6   Atom        0.000000      0.000000      0.000000
     7   Atom        0.000000      0.000000      0.000000
     8   Atom        0.000000      0.000000      0.000000
     9   Atom        0.000000      0.000000      0.000000
    10   Atom        0.000000      0.000000      0.000000
    11   Atom        0.000000      0.000000      0.000000
    12   Atom        0.000000      0.000000      0.000000
    13   Atom        0.000000      0.000000      0.000000
    14   Atom        0.000000      0.000000      0.000000
    15   Atom        0.000000      0.000000      0.000000
    16   Atom        0.000000      0.000000      0.000000
    17   Atom        0.000000      0.000000      0.000000
    18   Atom        0.000000      0.000000      0.000000
    19   Atom        0.000000      0.000000      0.000000
    20   Atom        0.000000      0.000000      0.000000
 --------------------------------------------------------
                        XY            XZ            YZ
 --------------------------------------------------------
     1   Atom        0.000000      0.000000      0.000000
     2   Atom        0.000000      0.000000      0.000000
     3   Atom        0.000000      0.000000      0.000000
     4   Atom        0.000000      0.000000      0.000000
     5   Atom        0.000000      0.000000      0.000000
     6   Atom        0.000000      0.000000      0.000000
     7   Atom        0.000000      0.000000      0.000000
     8   Atom        0.000000      0.000000      0.000000
     9   Atom        0.000000      0.000000      0.000000
    10   Atom        0.000000      0.000000      0.000000
    11   Atom        0.000000      0.000000      0.000000
    12   Atom        0.000000      0.000000      0.000000
    13   Atom        0.000000      0.000000      0.000000
    14   Atom        0.000000      0.000000      0.000000
    15   Atom        0.000000      0.000000      0.000000
    16   Atom        0.000000      0.000000      0.000000
    17   Atom        0.000000      0.000000      0.000000
    18   Atom        0.000000      0.000000      0.000000
    19   Atom        0.000000      0.000000      0.000000
    20   Atom        0.000000      0.000000      0.000000
 --------------------------------------------------------


 ---------------------------------------------------------------------------------
              Anisotropic Spin Dipole Couplings in Principal Axis System
 ---------------------------------------------------------------------------------

       Atom             a.u.   MegaHertz   Gauss  10(-4) cm-1        Axes

              Baa     0.0000     0.000     0.000     0.000  1.0000  0.0000  0.0000
     1 C(13)  Bbb     0.0000     0.000     0.000     0.000  0.0000  1.0000  0.0000
              Bcc     0.0000     0.000     0.000     0.000  0.0000  0.0000  1.0000
 
              Baa     0.0000     0.000     0.000     0.000  1.0000  0.0000  0.0000
     2 C(13)  Bbb     0.0000     0.000     0.000     0.000  0.0000  1.0000  0.0000
              Bcc     0.0000     0.000     0.000     0.000  0.0000  0.0000  1.0000
 
              Baa     0.0000     0.000     0.000     0.000  1.0000  0.0000  0.0000
     3 C(13)  Bbb     0.0000     0.000     0.000     0.000  0.0000  1.0000  0.0000
              Bcc     0.0000     0.000     0.000     0.000  0.0000  0.0000  1.0000
 
              Baa     0.0000     0.000     0.000     0.000  1.0000  0.0000  0.0000
     4 C(13)  Bbb     0.0000     0.000     0.000     0.000  0.0000  1.0000  0.0000
              Bcc     0.0000     0.000     0.000     0.000  0.0000  0.0000  1.0000
 
              Baa     0.0000     0.000     0.000     0.000  1.0000  0.0000  0.0000
     5 O(17)  Bbb     0.0000     0.000     0.000     0.000  0.0000  1.0000  0.0000
              Bcc     0.0000     0.000     0.000     0.000  0.0000  0.0000  1.0000
 
              Baa     0.0000     0.000     0.000     0.000  1.0000  0.0000  0.0000
     6 C(13)  Bbb     0.0000     0.000     0.000     0.000  0.0000  1.0000  0.0000
              Bcc     0.0000     0.000     0.000     0.000  0.0000  0.0000  1.0000
 
              Baa     0.0000     0.000     0.000     0.000  1.0000  0.0000  0.0000
     7 C(13)  Bbb     0.0000     0.000     0.000     0.000  0.0000  1.0000  0.0000
              Bcc     0.0000     0.000     0.000     0.000  0.0000  0.0000  1.0000
 
              Baa     0.0000     0.000     0.000     0.000  1.0000  0.0000  0.0000
     8 O(17)  Bbb     0.0000     0.000     0.000     0.000  0.0000  1.0000  0.0000
              Bcc     0.0000     0.000     0.000     0.000  0.0000  0.0000  1.0000
 
              Baa     0.0000     0.000     0.000     0.000  1.0000  0.0000  0.0000
     9 H(1)   Bbb     0.0000     0.000     0.000     0.000  0.0000  1.0000  0.0000
              Bcc     0.0000     0.000     0.000     0.000  0.0000  0.0000  1.0000
 
              Baa     0.0000     0.000     0.000     0.000  1.0000  0.0000  0.0000
    10 H(1)   Bbb     0.0000     0.000     0.000     0.000  0.0000  1.0000  0.0000
              Bcc     0.0000     0.000     0.000     0.000  0.0000  0.0000  1.0000
 
              Baa     0.0000     0.000     0.000     0.000  1.0000  0.0000  0.0000
    11 H(1)   Bbb     0.0000     0.000     0.000     0.000  0.0000  1.0000  0.0000
              Bcc     0.0000     0.000     0.000     0.000  0.0000  0.0000  1.0000
 
              Baa     0.0000     0.000     0.000     0.000  1.0000  0.0000  0.0000
    12 H(1)   Bbb     0.0000     0.000     0.000     0.000  0.0000  1.0000  0.0000
              Bcc     0.0000     0.000     0.000     0.000  0.0000  0.0000  1.0000
 
              Baa     0.0000     0.000     0.000     0.000  1.0000  0.0000  0.0000
    13 H(1)   Bbb     0.0000     0.000     0.000     0.000  0.0000  1.0000  0.0000
              Bcc     0.0000     0.000     0.000     0.000  0.0000  0.0000  1.0000
 
              Baa     0.0000     0.000     0.000     0.000  1.0000  0.0000  0.0000
    14 H(1)   Bbb     0.0000     0.000     0.000     0.000  0.0000  1.0000  0.0000
              Bcc     0.0000     0.000     0.000     0.000  0.0000  0.0000  1.0000
 
              Baa     0.0000     0.000     0.000     0.000  1.0000  0.0000  0.0000
    15 H(1)   Bbb     0.0000     0.000     0.000     0.000  0.0000  1.0000  0.0000
              Bcc     0.0000     0.000     0.000     0.000  0.0000  0.0000  1.0000
 
              Baa     0.0000     0.000     0.000     0.000  1.0000  0.0000  0.0000
    16 H(1)   Bbb     0.0000     0.000     0.000     0.000  0.0000  1.0000  0.0000
              Bcc     0.0000     0.000     0.000     0.000  0.0000  0.0000  1.0000
 
              Baa     0.0000     0.000     0.000     0.000  1.0000  0.0000  0.0000
    17 H(1)   Bbb     0.0000     0.000     0.000     0.000  0.0000  1.0000  0.0000
              Bcc     0.0000     0.000     0.000     0.000  0.0000  0.0000  1.0000
 
              Baa     0.0000     0.000     0.000     0.000  1.0000  0.0000  0.0000
    18 H(1)   Bbb     0.0000     0.000     0.000     0.000  0.0000  1.0000  0.0000
              Bcc     0.0000     0.000     0.000     0.000  0.0000  0.0000  1.0000
 
              Baa     0.0000     0.000     0.000     0.000  1.0000  0.0000  0.0000
    19 H(1)   Bbb     0.0000     0.000     0.000     0.000  0.0000  1.0000  0.0000
              Bcc     0.0000     0.000     0.000     0.000  0.0000  0.0000  1.0000
 
              Baa     0.0000     0.000     0.000     0.000  1.0000  0.0000  0.0000
    20 H(1)   Bbb     0.0000     0.000     0.000     0.000  0.0000  1.0000  0.0000
              Bcc     0.0000     0.000     0.000     0.000  0.0000  0.0000  1.0000
 

 ---------------------------------------------------------------------------------

 No NMR shielding tensors so no spin-rotation constants.
 Leave Link  601 at Mon Nov 11 16:11:01 2019, MaxMem=  1835008000 cpu:        15.3
 (Enter /cm/shared/c3ddb/gaussian/09.d01/g09/l9999.exe)

 This type of calculation cannot be archived.


 WORK FAITHFULLY FOR EIGHT HOURS A DAY AND DON'T WORRY.
 IN TIME YOU MAY BECOME BOSS AND WORK TWELVE HOURS A DAY
 AND HAVE ALL THE WORRY.
 Job cpu time:       0 days  3 hours 27 minutes 40.7 seconds.
 File lengths (MBytes):  RWF=    104 Int=      0 D2E=      0 Chk=      5 Scr=      1
 Normal termination of Gaussian 09 at Mon Nov 11 16:11:02 2019.
