 Entering Gaussian System, Link 0=g09
 Initial command:
 /cm/shared/c3ddb/gaussian/09.d01/g09/l1.exe "/scratch/users/xiaorui/g09/a1471-9140764/Gau-62317.inp" -scrdir="/scratch/users/xiaorui/g09/a1471-9140764/"
 Entering Link 1 = /cm/shared/c3ddb/gaussian/09.d01/g09/l1.exe PID=     62318.
  
 Copyright (c) 1988,1990,1992,1993,1995,1998,2003,2009,2013,
            Gaussian, Inc.  All Rights Reserved.
  
 This is part of the Gaussian(R) 09 program.  It is based on
 the Gaussian(R) 03 system (copyright 2003, Gaussian, Inc.),
 the Gaussian(R) 98 system (copyright 1998, Gaussian, Inc.),
 the Gaussian(R) 94 system (copyright 1995, Gaussian, Inc.),
 the Gaussian 92(TM) system (copyright 1992, Gaussian, Inc.),
 the Gaussian 90(TM) system (copyright 1990, Gaussian, Inc.),
 the Gaussian 88(TM) system (copyright 1988, Gaussian, Inc.),
 the Gaussian 86(TM) system (copyright 1986, Carnegie Mellon
 University), and the Gaussian 82(TM) system (copyright 1983,
 Carnegie Mellon University). Gaussian is a federally registered
 trademark of Gaussian, Inc.
  
 This software contains proprietary and confidential information,
 including trade secrets, belonging to Gaussian, Inc.
  
 This software is provided under written license and may be
 used, copied, transmitted, or stored only in accord with that
 written license.
  
 The following legend is applicable only to US Government
 contracts under FAR:
  
                    RESTRICTED RIGHTS LEGEND
  
 Use, reproduction and disclosure by the US Government is
 subject to restrictions as set forth in subparagraphs (a)
 and (c) of the Commercial Computer Software - Restricted
 Rights clause in FAR 52.227-19.
  
 Gaussian, Inc.
 340 Quinnipiac St., Bldg. 40, Wallingford CT 06492
  
  
 ---------------------------------------------------------------
 Warning -- This program may not be used in any manner that
 competes with the business of Gaussian, Inc. or will provide
 assistance to any competitor of Gaussian, Inc.  The licensee
 of this program is prohibited from giving any competitor of
 Gaussian, Inc. access to this program.  By using this program,
 the user acknowledges that Gaussian, Inc. is engaged in the
 business of creating and licensing software in the field of
 computational chemistry and represents and warrants to the
 licensee that it is not a competitor of Gaussian, Inc. and that
 it will not use this program in any manner prohibited above.
 ---------------------------------------------------------------
  

 Cite this work as:
 Gaussian 09, Revision D.01,
 M. J. Frisch, G. W. Trucks, H. B. Schlegel, G. E. Scuseria, 
 M. A. Robb, J. R. Cheeseman, G. Scalmani, V. Barone, B. Mennucci, 
 G. A. Petersson, H. Nakatsuji, M. Caricato, X. Li, H. P. Hratchian, 
 A. F. Izmaylov, J. Bloino, G. Zheng, J. L. Sonnenberg, M. Hada, 
 M. Ehara, K. Toyota, R. Fukuda, J. Hasegawa, M. Ishida, T. Nakajima, 
 Y. Honda, O. Kitao, H. Nakai, T. Vreven, J. A. Montgomery, Jr., 
 J. E. Peralta, F. Ogliaro, M. Bearpark, J. J. Heyd, E. Brothers, 
 K. N. Kudin, V. N. Staroverov, T. Keith, R. Kobayashi, J. Normand, 
 K. Raghavachari, A. Rendell, J. C. Burant, S. S. Iyengar, J. Tomasi, 
 M. Cossi, N. Rega, J. M. Millam, M. Klene, J. E. Knox, J. B. Cross, 
 V. Bakken, C. Adamo, J. Jaramillo, R. Gomperts, R. E. Stratmann, 
 O. Yazyev, A. J. Austin, R. Cammi, C. Pomelli, J. W. Ochterski, 
 R. L. Martin, K. Morokuma, V. G. Zakrzewski, G. A. Voth, 
 P. Salvador, J. J. Dannenberg, S. Dapprich, A. D. Daniels, 
 O. Farkas, J. B. Foresman, J. V. Ortiz, J. Cioslowski, 
 and D. J. Fox, Gaussian, Inc., Wallingford CT, 2013.
 
 ******************************************
 Gaussian 09:  AS64L-G09RevD.01 24-Apr-2013
                 6-Aug-2019 
 ******************************************
 %chk=check.chk
 %mem=14000mb
 %NProcShared=8
 Will use up to    8 processors via shared memory.
 ----------------------------------------------------------------------
 #P opt=(modredundant, calcfc, noeigentest, maxStep=5) scf=(tight, dire
 ct) integral=(grid=ultrafine, Acc2E=12) guess=read b3lyp/cbsb7 scf=xqc
  iop(2/9=2000)
 ----------------------------------------------------------------------
 1/8=5,10=4,11=1,14=-1,18=120,19=15,26=4,38=1/1,3;
 2/9=2000,12=2,17=6,18=5,40=1/2;
 3/5=4,6=6,7=700,11=2,16=1,25=1,30=1,71=2,74=-5,75=-5,116=-2,140=1/1,2,3;
 4/5=1/1;
 5/5=2,8=3,13=1,32=2,38=6,87=12/2,8;
 8/6=4,10=90,11=11,87=12/1;
 11/6=1,8=1,9=11,15=111,16=1,87=12/1,2,10;
 10/6=1,13=1,87=12/2;
 6/7=2,8=2,9=2,10=2,28=1/1;
 7/10=1,18=20,25=1,87=12/1,2,3,16;
 1/8=5,10=4,11=1,14=-1,18=20,19=15,26=4/3(2);
 2/9=2000/2;
 99//99;
 2/9=2000/2;
 3/5=4,6=6,7=700,11=2,16=1,25=1,30=1,71=1,74=-5,75=-5/1,2,3;
 4/5=5,16=3,69=1/1;
 5/5=2,8=3,13=1,32=2,38=5,87=12/2,8;
 7/87=12/1,2,3,16;
 1/8=5,11=1,14=-1,18=20,19=15,26=4/3(-5);
 2/9=2000/2;
 6/7=2,8=2,9=2,10=2,19=2,28=1/1;
 99/9=1/99;
 Leave Link    1 at Tue Aug  6 14:42:03 2019, MaxMem=  1835008000 cpu:         0.8
 (Enter /cm/shared/c3ddb/gaussian/09.d01/g09/l101.exe)
 ----
 name
 ----
 Symbolic Z-matrix:
 Charge =  0 Multiplicity = 1
 C                    -0.04494   0.65427   0. 
 O                    -0.0591   -0.76646   0. 
 H                    -1.08554   0.98168   0. 
 H                     0.44239   1.071     0.89208 
 H                     0.44239   1.071    -0.89208 
 H                     0.85291  -1.0698    0. 
 
 The following ModRedundant input section has been read:
 D       3       1       2       6 S  45 8.0000                                
 
 NAtoms=      6 NQM=        6 NQMF=       0 NMMI=      0 NMMIF=      0
                NMic=       0 NMicF=      0.
                    Isotopes and Nuclear Properties:
 (Nuclear quadrupole moments (NQMom) in fm**2, nuclear magnetic moments (NMagM)
  in nuclear magnetons)

  Atom         1           2           3           4           5           6
 IAtWgt=          12          16           1           1           1           1
 AtmWgt=  12.0000000  15.9949146   1.0078250   1.0078250   1.0078250   1.0078250
 NucSpn=           0           0           1           1           1           1
 AtZEff=   0.0000000   0.0000000   0.0000000   0.0000000   0.0000000   0.0000000
 NQMom=    0.0000000   0.0000000   0.0000000   0.0000000   0.0000000   0.0000000
 NMagM=    0.0000000   0.0000000   2.7928460   2.7928460   2.7928460   2.7928460
 AtZNuc=   6.0000000   8.0000000   1.0000000   1.0000000   1.0000000   1.0000000
 Leave Link  101 at Tue Aug  6 14:42:06 2019, MaxMem=  1835008000 cpu:        18.5
 (Enter /cm/shared/c3ddb/gaussian/09.d01/g09/l103.exe)

 GradGradGradGradGradGradGradGradGradGradGradGradGradGradGradGradGradGrad
 Berny optimization.
 Initialization pass.
                           ----------------------------
                           !    Initial Parameters    !
                           ! (Angstroms and Degrees)  !
 --------------------------                            --------------------------
 ! Name  Definition              Value          Derivative Info.                !
 --------------------------------------------------------------------------------
 ! R1    R(1,2)                  1.4208         calculate D2E/DX2 analytically  !
 ! R2    R(1,3)                  1.0909         calculate D2E/DX2 analytically  !
 ! R3    R(1,4)                  1.0986         calculate D2E/DX2 analytically  !
 ! R4    R(1,5)                  1.0986         calculate D2E/DX2 analytically  !
 ! R5    R(2,6)                  0.9611         calculate D2E/DX2 analytically  !
 ! A1    A(2,1,3)              106.8945         calculate D2E/DX2 analytically  !
 ! A2    A(2,1,4)              112.5645         calculate D2E/DX2 analytically  !
 ! A3    A(2,1,5)              112.5645         calculate D2E/DX2 analytically  !
 ! A4    A(3,1,4)              108.0164         calculate D2E/DX2 analytically  !
 ! A5    A(3,1,5)              108.0164         calculate D2E/DX2 analytically  !
 ! A6    A(4,1,5)              108.5841         calculate D2E/DX2 analytically  !
 ! A7    A(1,2,6)              107.8265         calculate D2E/DX2 analytically  !
 ! D1    D(3,1,2,6)            180.0            Scan                            !
 ! D2    D(4,1,2,6)            -61.5599         calculate D2E/DX2 analytically  !
 ! D3    D(5,1,2,6)             61.5599         calculate D2E/DX2 analytically  !
 --------------------------------------------------------------------------------
 Trust Radius=5.00D-02 FncErr=1.00D-07 GrdErr=1.00D-06
 Number of optimizations in scan=  46
 Number of steps in this run=     25 maximum allowed number of steps=    100.
 GradGradGradGradGradGradGradGradGradGradGradGradGradGradGradGradGradGrad

 Leave Link  103 at Tue Aug  6 14:42:06 2019, MaxMem=  1835008000 cpu:         0.1
 (Enter /cm/shared/c3ddb/gaussian/09.d01/g09/l202.exe)
                          Input orientation:                          
 ---------------------------------------------------------------------
 Center     Atomic      Atomic             Coordinates (Angstroms)
 Number     Number       Type             X           Y           Z
 ---------------------------------------------------------------------
      1          6           0       -0.044943    0.654272    0.000000
      2          8           0       -0.059101   -0.766459    0.000000
      3          1           0       -1.085540    0.981681    0.000000
      4          1           0        0.442388    1.071002    0.892082
      5          1           0        0.442388    1.071002   -0.892082
      6          1           0        0.852907   -1.069799    0.000000
 ---------------------------------------------------------------------
                    Distance matrix (angstroms):
                    1          2          3          4          5
     1  C    0.000000
     2  O    1.420802   0.000000
     3  H    1.090889   2.027208   0.000000
     4  H    1.098620   2.103227   1.771540   0.000000
     5  H    1.098620   2.103227   1.771540   1.784164   0.000000
     6  H    1.943851   0.961131   2.822436   2.355284   2.355284
                    6
     6  H    0.000000
 Stoichiometry    CH4O
 Framework group  CS[SG(CH2O),X(H2)]
 Deg. of freedom     8
 Full point group                 CS      NOp   2
 Largest Abelian subgroup         CS      NOp   2
 Largest concise Abelian subgroup CS      NOp   2
                         Standard orientation:                         
 ---------------------------------------------------------------------
 Center     Atomic      Atomic             Coordinates (Angstroms)
 Number     Number       Type             X           Y           Z
 ---------------------------------------------------------------------
      1          6           0       -0.046527    0.662294    0.000000
      2          8           0       -0.046527   -0.758507    0.000000
      3          1           0       -1.090335    0.979318    0.000000
      4          1           0        0.436627    1.083860    0.892082
      5          1           0        0.436627    1.083860   -0.892082
      6          1           0        0.868458   -1.052744    0.000000
 ---------------------------------------------------------------------
 Rotational constants (GHZ):    128.0768134     24.7305261     23.8688194
 Leave Link  202 at Tue Aug  6 14:42:06 2019, MaxMem=  1835008000 cpu:         0.3
 (Enter /cm/shared/c3ddb/gaussian/09.d01/g09/l301.exe)
 Standard basis: 6-311G(2d,d,p) (5D, 7F)
 Ernie: Thresh=  0.10000D-02 Tol=  0.10000D-05 Strict=F.
 There are    44 symmetry adapted cartesian basis functions of A'  symmetry.
 There are    18 symmetry adapted cartesian basis functions of A"  symmetry.
 There are    42 symmetry adapted basis functions of A'  symmetry.
 There are    18 symmetry adapted basis functions of A"  symmetry.
    60 basis functions,    96 primitive gaussians,    62 cartesian basis functions
     9 alpha electrons        9 beta electrons
       nuclear repulsion energy        40.2510186503 Hartrees.
 IExCor=  402 DFT=T Ex+Corr=B3LYP ExCW=0 ScaHFX=  0.200000
 ScaDFX=  0.800000  0.720000  1.000000  0.810000 ScalE2=  1.000000  1.000000
 IRadAn=      5 IRanWt=     -1 IRanGd=            0 ICorTp=0 IEmpDi=  4
 NAtoms=    6 NActive=    6 NUniq=    5 SFac= 1.44D+00 NAtFMM=   60 NAOKFM=F Big=F
 Integral buffers will be    131072 words long.
 Raffenetti 2 integral format.
 Two-electron integral symmetry is turned on.
 Leave Link  301 at Tue Aug  6 14:42:07 2019, MaxMem=  1835008000 cpu:         0.8
 (Enter /cm/shared/c3ddb/gaussian/09.d01/g09/l302.exe)
 NPDir=0 NMtPBC=     1 NCelOv=     1 NCel=       1 NClECP=     1 NCelD=      1
         NCelK=      1 NCelE2=     1 NClLst=     1 CellRange=     0.0.
 One-electron integrals computed using PRISM.
 One-electron integral symmetry used in STVInt
 NBasis=    60 RedAO= T EigKep=  1.15D-02  NBF=    42    18
 NBsUse=    60 1.00D-06 EigRej= -1.00D+00 NBFU=    42    18
 Precomputing XC quadrature grid using
 IXCGrd= 4 IRadAn=           5 IRanWt=          -1 IRanGd=           0 AccXCQ= 0.00D+00.
 Generated NRdTot=       0 NPtTot=           0 NUsed=           0 NTot=          32
 NSgBfM=    62    62    62    62    62 MxSgAt=     6 MxSgA2=     6.
 Leave Link  302 at Tue Aug  6 14:42:08 2019, MaxMem=  1835008000 cpu:         4.6
 (Enter /cm/shared/c3ddb/gaussian/09.d01/g09/l303.exe)
 DipDrv:  MaxL=1.
 Leave Link  303 at Tue Aug  6 14:42:08 2019, MaxMem=  1835008000 cpu:         1.1
 (Enter /cm/shared/c3ddb/gaussian/09.d01/g09/l401.exe)
 Initial guess from the checkpoint file:  "check.chk"
 B after Tr=     0.000000    0.000000    0.000000
         Rot=    1.000000    0.000000    0.000000    0.000000 Ang=   0.00 deg.
 Guess basis will be translated and rotated to current coordinates.
 JPrj=2 DoOrth=T DoCkMO=T.
 Initial guess orbital symmetries:
       Occupied  (A') (A') (A') (A') (A') (A") (A') (A') (A")
       Virtual   (A') (A') (A") (A') (A') (A') (A") (A') (A') (A')
                 (A") (A') (A") (A') (A') (A') (A') (A') (A") (A')
                 (A") (A') (A') (A") (A') (A') (A") (A') (A') (A")
                 (A') (A') (A") (A") (A') (A") (A') (A') (A') (A")
                 (A') (A') (A") (A') (A') (A') (A") (A') (A") (A')
                 (A')
 The electronic state of the initial guess is 1-A'.
 Leave Link  401 at Tue Aug  6 14:42:09 2019, MaxMem=  1835008000 cpu:         3.4
 (Enter /cm/shared/c3ddb/gaussian/09.d01/g09/l502.exe)
 Closed shell SCF:
 Using DIIS extrapolation, IDIIS=  1040.
 Integral symmetry usage will be decided dynamically.
 Keep R1 ints in memory in symmetry-blocked form, NReq=2582277.
 IVT=       18530 IEndB=       18530 NGot=  1835008000 MDV=  1834121682
 LenX=  1834121682 LenY=  1834117397
 Requested convergence on RMS density matrix=1.00D-08 within  64 cycles.
 Requested convergence on MAX density matrix=1.00D-06.
 Requested convergence on             energy=1.00D-06.
 No special actions if energy rises.
 FoFCou: FMM=F IPFlag=           0 FMFlag=           0 FMFlg1=           0
         NFxFlg=           0 DoJE=F BraDBF=F KetDBF=F FulRan=T
         wScrn=  0.000000 ICntrl=     600 IOpCl=  0 I1Cent=           0 NGrid=           0
         NMat0=    1 NMatS0=   1830 NMatT0=    0 NMatD0=    1 NMtDS0=    0 NMtDT0=    0
 Petite list used in FoFCou.

 Cycle   1  Pass 1  IDiag  1:
 E= -115.743099934358    
 DIIS: error= 2.03D-02 at cycle   1 NSaved=   1.
 NSaved= 1 IEnMin= 1 EnMin= -115.743099934358     IErMin= 1 ErrMin= 2.03D-02
 ErrMax= 2.03D-02  0.00D+00 EMaxC= 1.00D-01 BMatC= 3.50D-02 BMatP= 3.50D-02
 IDIUse=3 WtCom= 7.97D-01 WtEn= 2.03D-01
 Coeff-Com:  0.100D+01
 Coeff-En:   0.100D+01
 Coeff:      0.100D+01
 Gap=     2.436 Goal=   None    Shift=    0.000
 GapD=    2.436 DampG=2.000 DampE=0.500 DampFc=1.0000 IDamp=-1.
 RMSDP=1.95D-03 MaxDP=2.43D-02              OVMax= 2.86D-02

 Cycle   2  Pass 1  IDiag  1:
 E= -115.755879887244     Delta-E=       -0.012779952886 Rises=F Damp=F
 DIIS: error= 7.76D-03 at cycle   2 NSaved=   2.
 NSaved= 2 IEnMin= 2 EnMin= -115.755879887244     IErMin= 2 ErrMin= 7.76D-03
 ErrMax= 7.76D-03  0.00D+00 EMaxC= 1.00D-01 BMatC= 1.91D-03 BMatP= 3.50D-02
 IDIUse=3 WtCom= 9.22D-01 WtEn= 7.76D-02
 Coeff-Com:  0.106D+00 0.894D+00
 Coeff-En:   0.000D+00 0.100D+01
 Coeff:      0.978D-01 0.902D+00
 Gap=     0.301 Goal=   None    Shift=    0.000
 RMSDP=8.21D-04 MaxDP=1.76D-02 DE=-1.28D-02 OVMax= 1.87D-02

 Cycle   3  Pass 1  IDiag  1:
 E= -115.756023935803     Delta-E=       -0.000144048559 Rises=F Damp=F
 DIIS: error= 6.87D-03 at cycle   3 NSaved=   3.
 NSaved= 3 IEnMin= 3 EnMin= -115.756023935803     IErMin= 3 ErrMin= 6.87D-03
 ErrMax= 6.87D-03  0.00D+00 EMaxC= 1.00D-01 BMatC= 1.53D-03 BMatP= 1.91D-03
 IDIUse=3 WtCom= 9.31D-01 WtEn= 6.87D-02
 Coeff-Com:  0.341D-03 0.472D+00 0.528D+00
 Coeff-En:   0.000D+00 0.476D+00 0.524D+00
 Coeff:      0.318D-03 0.472D+00 0.527D+00
 Gap=     0.310 Goal=   None    Shift=    0.000
 RMSDP=4.34D-04 MaxDP=8.19D-03 DE=-1.44D-04 OVMax= 9.78D-03

 Cycle   4  Pass 1  IDiag  1:
 E= -115.757383369110     Delta-E=       -0.001359433307 Rises=F Damp=F
 DIIS: error= 5.27D-04 at cycle   4 NSaved=   4.
 NSaved= 4 IEnMin= 4 EnMin= -115.757383369110     IErMin= 4 ErrMin= 5.27D-04
 ErrMax= 5.27D-04  0.00D+00 EMaxC= 1.00D-01 BMatC= 1.37D-05 BMatP= 1.53D-03
 IDIUse=3 WtCom= 9.95D-01 WtEn= 5.27D-03
 Coeff-Com: -0.557D-03 0.121D+00 0.179D+00 0.701D+00
 Coeff-En:   0.000D+00 0.000D+00 0.000D+00 0.100D+01
 Coeff:     -0.554D-03 0.120D+00 0.178D+00 0.702D+00
 Gap=     0.309 Goal=   None    Shift=    0.000
 RMSDP=4.61D-05 MaxDP=6.94D-04 DE=-1.36D-03 OVMax= 1.05D-03

 Cycle   5  Pass 1  IDiag  1:
 E= -115.757389887044     Delta-E=       -0.000006517934 Rises=F Damp=F
 DIIS: error= 3.38D-04 at cycle   5 NSaved=   5.
 NSaved= 5 IEnMin= 5 EnMin= -115.757389887044     IErMin= 5 ErrMin= 3.38D-04
 ErrMax= 3.38D-04  0.00D+00 EMaxC= 1.00D-01 BMatC= 4.78D-06 BMatP= 1.37D-05
 IDIUse=3 WtCom= 9.97D-01 WtEn= 3.38D-03
 Coeff-Com: -0.100D-02 0.270D-01 0.604D-01 0.423D+00 0.491D+00
 Coeff-En:   0.000D+00 0.000D+00 0.000D+00 0.217D+00 0.783D+00
 Coeff:     -0.998D-03 0.269D-01 0.602D-01 0.422D+00 0.492D+00
 Gap=     0.309 Goal=   None    Shift=    0.000
 RMSDP=1.82D-05 MaxDP=3.20D-04 DE=-6.52D-06 OVMax= 4.76D-04

 Cycle   6  Pass 1  IDiag  1:
 E= -115.757393360849     Delta-E=       -0.000003473805 Rises=F Damp=F
 DIIS: error= 2.25D-05 at cycle   6 NSaved=   6.
 NSaved= 6 IEnMin= 6 EnMin= -115.757393360849     IErMin= 6 ErrMin= 2.25D-05
 ErrMax= 2.25D-05  0.00D+00 EMaxC= 1.00D-01 BMatC= 3.09D-08 BMatP= 4.78D-06
 IDIUse=1 WtCom= 1.00D+00 WtEn= 0.00D+00
 Coeff-Com: -0.143D-03 0.497D-03 0.755D-02 0.764D-01 0.124D+00 0.792D+00
 Coeff:     -0.143D-03 0.497D-03 0.755D-02 0.764D-01 0.124D+00 0.792D+00
 Gap=     0.309 Goal=   None    Shift=    0.000
 RMSDP=2.22D-06 MaxDP=2.61D-05 DE=-3.47D-06 OVMax= 4.24D-05

 Cycle   7  Pass 1  IDiag  1:
 E= -115.757393382009     Delta-E=       -0.000000021160 Rises=F Damp=F
 DIIS: error= 3.09D-06 at cycle   7 NSaved=   7.
 NSaved= 7 IEnMin= 7 EnMin= -115.757393382009     IErMin= 7 ErrMin= 3.09D-06
 ErrMax= 3.09D-06  0.00D+00 EMaxC= 1.00D-01 BMatC= 5.91D-10 BMatP= 3.09D-08
 IDIUse=1 WtCom= 1.00D+00 WtEn= 0.00D+00
 Coeff-Com: -0.543D-05-0.397D-03-0.197D-03 0.281D-02 0.353D-02 0.129D+00
 Coeff-Com:  0.865D+00
 Coeff:     -0.543D-05-0.397D-03-0.197D-03 0.281D-02 0.353D-02 0.129D+00
 Coeff:      0.865D+00
 Gap=     0.309 Goal=   None    Shift=    0.000
 RMSDP=2.67D-07 MaxDP=3.52D-06 DE=-2.12D-08 OVMax= 5.67D-06

 Cycle   8  Pass 1  IDiag  1:
 E= -115.757393382419     Delta-E=       -0.000000000410 Rises=F Damp=F
 DIIS: error= 6.62D-07 at cycle   8 NSaved=   8.
 NSaved= 8 IEnMin= 8 EnMin= -115.757393382419     IErMin= 8 ErrMin= 6.62D-07
 ErrMax= 6.62D-07  0.00D+00 EMaxC= 1.00D-01 BMatC= 1.32D-11 BMatP= 5.91D-10
 IDIUse=1 WtCom= 1.00D+00 WtEn= 0.00D+00
 Coeff-Com:  0.110D-05-0.128D-03-0.231D-03-0.687D-03-0.187D-02 0.184D-01
 Coeff-Com:  0.208D+00 0.777D+00
 Coeff:      0.110D-05-0.128D-03-0.231D-03-0.687D-03-0.187D-02 0.184D-01
 Coeff:      0.208D+00 0.777D+00
 Gap=     0.309 Goal=   None    Shift=    0.000
 RMSDP=4.62D-08 MaxDP=7.01D-07 DE=-4.10D-10 OVMax= 9.34D-07

 Cycle   9  Pass 1  IDiag  1:
 E= -115.757393382429     Delta-E=       -0.000000000010 Rises=F Damp=F
 DIIS: error= 4.87D-08 at cycle   9 NSaved=   9.
 NSaved= 9 IEnMin= 9 EnMin= -115.757393382429     IErMin= 9 ErrMin= 4.87D-08
 ErrMax= 4.87D-08  0.00D+00 EMaxC= 1.00D-01 BMatC= 1.22D-13 BMatP= 1.32D-11
 IDIUse=1 WtCom= 1.00D+00 WtEn= 0.00D+00
 Coeff-Com:  0.220D-06-0.678D-05-0.169D-04-0.425D-04-0.209D-03-0.674D-03
 Coeff-Com:  0.285D-03 0.837D-01 0.917D+00
 Coeff:      0.220D-06-0.678D-05-0.169D-04-0.425D-04-0.209D-03-0.674D-03
 Coeff:      0.285D-03 0.837D-01 0.917D+00
 Gap=     0.309 Goal=   None    Shift=    0.000
 RMSDP=5.62D-09 MaxDP=7.21D-08 DE=-1.00D-11 OVMax= 1.21D-07

 SCF Done:  E(RB3LYP) =  -115.757393382     A.U. after    9 cycles
            NFock=  9  Conv=0.56D-08     -V/T= 2.0032
 KE= 1.153926534404D+02 PE=-3.523959678921D+02 EE= 8.099490241901D+01
 Leave Link  502 at Tue Aug  6 14:42:16 2019, MaxMem=  1835008000 cpu:        41.4
 (Enter /cm/shared/c3ddb/gaussian/09.d01/g09/l508.exe)
 QCSCF skips out because SCF is already converged.
 Leave Link  508 at Tue Aug  6 14:42:16 2019, MaxMem=  1835008000 cpu:         0.0
 (Enter /cm/shared/c3ddb/gaussian/09.d01/g09/l801.exe)
 DoSCS=F DFT=T ScalE2(SS,OS)=  1.000000  1.000000
 Range of M.O.s used for correlation:     1    60
 NBasis=    60 NAE=     9 NBE=     9 NFC=     0 NFV=     0
 NROrb=     60 NOA=     9 NOB=     9 NVA=    51 NVB=    51
 Leave Link  801 at Tue Aug  6 14:42:16 2019, MaxMem=  1835008000 cpu:         0.2
 (Enter /cm/shared/c3ddb/gaussian/09.d01/g09/l1101.exe)
 Using compressed storage, NAtomX=     6.
 Will process      7 centers per pass.
 Leave Link 1101 at Tue Aug  6 14:42:17 2019, MaxMem=  1835008000 cpu:         7.8
 (Enter /cm/shared/c3ddb/gaussian/09.d01/g09/l1102.exe)
 Symmetrizing basis deriv contribution to polar:
 IMax=3 JMax=2 DiffMx= 0.00D+00
 Leave Link 1102 at Tue Aug  6 14:42:18 2019, MaxMem=  1835008000 cpu:         0.7
 (Enter /cm/shared/c3ddb/gaussian/09.d01/g09/l1110.exe)
 Forming Gx(P) for the SCF density, NAtomX=     6.
 Integral derivatives from FoFJK, PRISM(SPDF).
 Do as many integral derivatives as possible in FoFJK.
 G2DrvN: MDV=    1835007848.
 G2DrvN: will do     7 centers at a time, making    1 passes.
 Calling FoFCou, ICntrl=  3107 FMM=F I1Cent=   0 AccDes= 1.00D-12.
 FoFJK:  IHMeth= 1 ICntrl=    3107 DoSepK=F KAlg= 0 I1Cent=   0 FoldK=F
 IRaf=         0 NMat=   1 IRICut=       1 DoRegI=T DoRafI=F ISym2E= 1.
 FoFCou: FMM=F IPFlag=           0 FMFlag=      100000 FMFlg1=           0
         NFxFlg=           0 DoJE=F BraDBF=F KetDBF=F FulRan=T
         wScrn=  0.000000 ICntrl=    3107 IOpCl=  0 I1Cent=           0 NGrid=           0
         NMat0=    1 NMatS0=      1 NMatT0=    0 NMatD0=    1 NMtDS0=    0 NMtDT0=    0
 Petite list used in FoFCou.
 End of G2Drv F.D. properties file   721 does not exist.
 End of G2Drv F.D. properties file   722 does not exist.
 End of G2Drv F.D. properties file   788 does not exist.
 Leave Link 1110 at Tue Aug  6 14:42:22 2019, MaxMem=  1835008000 cpu:        24.9
 (Enter /cm/shared/c3ddb/gaussian/09.d01/g09/l1002.exe)
 Minotr:  Closed shell wavefunction.
          IDoAtm=111111
          Direct CPHF calculation.
          Differentiating once with respect to nuclear coordinates.
          Using symmetry in CPHF.
          Requested convergence is 1.0D-08 RMS, and 1.0D-07 maximum.
          Secondary convergence is 1.0D-12 RMS, and 1.0D-12 maximum.
          NewPWx=T KeepS1=F KeepF1=F KeepIn=T MapXYZ=F SortEE=F KeepMc=T.
          MDV=    1835007876 using IRadAn=       1.
 Generate precomputed XC quadrature information.
 Keep R1 ints in memory in symmetry-blocked form, NReq=2563073.
 FoFCou: FMM=F IPFlag=           0 FMFlag=           0 FMFlg1=           0
         NFxFlg=           0 DoJE=F BraDBF=F KetDBF=F FulRan=T
         wScrn=  0.000000 ICntrl=     600 IOpCl=  0 I1Cent=           0 NGrid=           0
         NMat0=    1 NMatS0=   1830 NMatT0=    0 NMatD0=    1 NMtDS0=    0 NMtDT0=    0
 Petite list used in FoFCou.
          Solving linear equations simultaneously, MaxMat=       0.
          There are    18 degrees of freedom in the 1st order CPHF.  IDoFFX=4 NUNeed=    18.
     15 vectors produced by pass  0 Test12= 2.55D-15 5.56D-09 XBig12= 8.97D-02 1.41D-01.
 AX will form    15 AO Fock derivatives at one time.
     15 vectors produced by pass  1 Test12= 2.55D-15 5.56D-09 XBig12= 5.35D-03 2.12D-02.
     15 vectors produced by pass  2 Test12= 2.55D-15 5.56D-09 XBig12= 1.21D-04 2.99D-03.
     15 vectors produced by pass  3 Test12= 2.55D-15 5.56D-09 XBig12= 5.09D-07 1.90D-04.
     15 vectors produced by pass  4 Test12= 2.55D-15 5.56D-09 XBig12= 4.73D-10 6.47D-06.
      7 vectors produced by pass  5 Test12= 2.55D-15 5.56D-09 XBig12= 3.15D-13 9.68D-08.
 InvSVY:  IOpt=1 It=  1 EMax= 9.99D-16
 Solved reduced A of dimension    82 with    15 vectors.
 FullF1:  Do perturbations    4 to    18.
 End of Minotr F.D. properties file   721 does not exist.
 End of Minotr F.D. properties file   722 does not exist.
 End of Minotr F.D. properties file   788 does not exist.
 Leave Link 1002 at Tue Aug  6 14:42:33 2019, MaxMem=  1835008000 cpu:        57.2
 (Enter /cm/shared/c3ddb/gaussian/09.d01/g09/l601.exe)
 Copying SCF densities to generalized density rwf, IOpCl= 0 IROHF=0.

 **********************************************************************

            Population analysis using the SCF density.

 **********************************************************************

 Orbital symmetries:
       Occupied  (A') (A') (A') (A') (A') (A") (A') (A') (A")
       Virtual   (A') (A') (A") (A') (A') (A') (A") (A') (A') (A')
                 (A") (A') (A') (A') (A") (A') (A") (A') (A') (A")
                 (A") (A') (A') (A") (A') (A") (A') (A') (A') (A")
                 (A') (A') (A') (A") (A") (A') (A') (A') (A') (A")
                 (A") (A') (A') (A") (A') (A') (A") (A') (A') (A')
                 (A')
 The electronic state is 1-A'.
 Alpha  occ. eigenvalues --  -19.10791 -10.20956  -1.01494  -0.68235  -0.50624
 Alpha  occ. eigenvalues --   -0.43876  -0.42414  -0.33473  -0.27157
 Alpha virt. eigenvalues --    0.03740   0.07162   0.11336   0.11583   0.18079
 Alpha virt. eigenvalues --    0.30481   0.32381   0.39188   0.44900   0.51839
 Alpha virt. eigenvalues --    0.56979   0.57839   0.70605   0.78668   0.81057
 Alpha virt. eigenvalues --    0.86952   1.06989   1.14529   1.32820   1.36878
 Alpha virt. eigenvalues --    1.44763   1.45309   1.47946   1.48271   1.58111
 Alpha virt. eigenvalues --    1.66093   1.76089   1.95359   1.99315   2.09038
 Alpha virt. eigenvalues --    2.15790   2.28209   2.31102   2.39749   2.44907
 Alpha virt. eigenvalues --    2.45998   2.55959   2.76414   2.90547   3.08688
 Alpha virt. eigenvalues --    3.20098   3.28655   3.65406   3.75693   3.88060
 Alpha virt. eigenvalues --    3.92393   4.84156   5.22531   5.62864  23.85283
 Alpha virt. eigenvalues --   49.86959
          Condensed to atoms (all electrons):
               1          2          3          4          5          6
     1  C    4.689029   0.280475   0.399925   0.395668   0.395668  -0.044765
     2  O    0.280475   7.909492  -0.030277  -0.032955  -0.032955   0.312174
     3  H    0.399925  -0.030277   0.582065  -0.035903  -0.035903   0.009675
     4  H    0.395668  -0.032955  -0.035903   0.640689  -0.048364  -0.007117
     5  H    0.395668  -0.032955  -0.035903  -0.048364   0.640689  -0.007117
     6  H   -0.044765   0.312174   0.009675  -0.007117  -0.007117   0.501582
 Mulliken charges:
               1
     1  C   -0.116000
     2  O   -0.405954
     3  H    0.110419
     4  H    0.087983
     5  H    0.087983
     6  H    0.235568
 Sum of Mulliken charges =   0.00000
 Mulliken charges with hydrogens summed into heavy atoms:
               1
     1  C    0.170386
     2  O   -0.170386
 APT charges:
               1
     1  C   -0.795742
     2  O   -0.589251
     3  H    0.330366
     4  H    0.297408
     5  H    0.297408
     6  H    0.459811
 Sum of APT charges =   0.00000
 APT charges with hydrogens summed into heavy atoms:
               1
     1  C    0.129440
     2  O   -0.129440
 Electronic spatial extent (au):  <R**2>=             84.3786
 Charge=              0.0000 electrons
 Dipole moment (field-independent basis, Debye):
    X=              1.4275    Y=              0.9467    Z=              0.0000  Tot=              1.7129
 Quadrupole moment (field-independent basis, Debye-Ang):
   XX=            -11.7246   YY=            -13.1793   ZZ=            -13.6699
   XY=             -2.1147   XZ=              0.0000   YZ=              0.0000
 Traceless Quadrupole moment (field-independent basis, Debye-Ang):
   XX=              1.1333   YY=             -0.3213   ZZ=             -0.8120
   XY=             -2.1147   XZ=              0.0000   YZ=              0.0000
 Octapole moment (field-independent basis, Debye-Ang**2):
  XXX=              1.0673  YYY=             -3.9561  ZZZ=              0.0000  XYY=              2.2111
  XXY=             -2.2925  XXZ=              0.0000  XZZ=              0.6425  YZZ=             -0.5578
  YYZ=              0.0000  XYZ=              0.0000
 Hexadecapole moment (field-independent basis, Debye-Ang**3):
 XXXX=            -19.2828 YYYY=            -62.1306 ZZZZ=            -19.8284 XXXY=             -1.1162
 XXXZ=              0.0000 YYYX=             -1.1649 YYYZ=              0.0000 ZZZX=              0.0000
 ZZZY=              0.0000 XXYY=            -12.3300 XXZZ=             -6.9095 YYZZ=            -13.9190
 XXYZ=              0.0000 YYXZ=              0.0000 ZZXY=              0.8701
 N-N= 4.025101865030D+01 E-N=-3.523959691149D+02  KE= 1.153926534404D+02
 Symmetry A'   KE= 1.086581998631D+02
 Symmetry A"   KE= 6.734453577244D+00
  Exact polarizability:   0.000   0.000   0.000   0.000   0.000   0.000
 Approx polarizability:  22.131  -0.805  22.582   0.000   0.000  18.732
 No NMR shielding tensors so no spin-rotation constants.
 Leave Link  601 at Tue Aug  6 14:42:35 2019, MaxMem=  1835008000 cpu:         6.4
 (Enter /cm/shared/c3ddb/gaussian/09.d01/g09/l701.exe)
 Compute integral second derivatives.
 ... and contract with generalized density number  0.
 Leave Link  701 at Tue Aug  6 14:42:36 2019, MaxMem=  1835008000 cpu:         8.0
 (Enter /cm/shared/c3ddb/gaussian/09.d01/g09/l702.exe)
 L702 exits ... SP integral derivatives will be done elsewhere.
 Leave Link  702 at Tue Aug  6 14:42:36 2019, MaxMem=  1835008000 cpu:         0.2
 (Enter /cm/shared/c3ddb/gaussian/09.d01/g09/l703.exe)
 Compute integral second derivatives, UseDBF=F ICtDFT=           0.
 Integral derivatives from FoFJK, PRISM(SPDF).
 Calling FoFJK, ICntrl=    100147 FMM=F ISym2X=1 I1Cent= 0 IOpClX= 0 NMat=1 NMatS=1 NMatT=0.
 FoFJK:  IHMeth= 1 ICntrl=  100147 DoSepK=F KAlg= 0 I1Cent=   0 FoldK=F
 IRaf=         0 NMat=   1 IRICut=       1 DoRegI=T DoRafI=F ISym2E= 1.
 FoFCou: FMM=F IPFlag=           0 FMFlag=      100000 FMFlg1=         800
         NFxFlg=           0 DoJE=F BraDBF=F KetDBF=F FulRan=T
         wScrn=  0.000000 ICntrl=  100147 IOpCl=  0 I1Cent=           0 NGrid=           0
         NMat0=    1 NMatS0=      1 NMatT0=    0 NMatD0=    1 NMtDS0=    0 NMtDT0=    0
 Petite list used in FoFCou.
 Leave Link  703 at Tue Aug  6 14:42:42 2019, MaxMem=  1835008000 cpu:        32.5
 (Enter /cm/shared/c3ddb/gaussian/09.d01/g09/l716.exe)
 Dipole        = 5.61633793D-01 3.72472321D-01 2.71050543D-20
 Polarizability= 0.00000000D+00 0.00000000D+00 0.00000000D+00
                 0.00000000D+00 0.00000000D+00 0.00000000D+00
 ***** Axes restored to original set *****
 -------------------------------------------------------------------
 Center     Atomic                   Forces (Hartrees/Bohr)
 Number     Number              X              Y              Z
 -------------------------------------------------------------------
      1        6          -0.000000280    0.000001140    0.000000000
      2        8          -0.000002599    0.000001722    0.000000000
      3        1           0.000000923   -0.000000558    0.000000000
      4        1          -0.000000238   -0.000000871   -0.000000898
      5        1          -0.000000238   -0.000000871    0.000000898
      6        1           0.000002432   -0.000000562    0.000000000
 -------------------------------------------------------------------
 Cartesian Forces:  Max     0.000002599 RMS     0.000001099
 Force constants in Cartesian coordinates: 
                1             2             3             4             5 
      1  0.595633D+00
      2 -0.124068D-01  0.464593D+00
      3  0.000000D+00  0.000000D+00  0.547361D+00
      4 -0.931944D-01  0.206776D-01  0.000000D+00  0.560308D+00
      5 -0.254890D-01 -0.233002D+00  0.000000D+00 -0.132525D+00  0.403322D+00
      6  0.000000D+00  0.000000D+00 -0.603859D-01  0.000000D+00  0.000000D+00
      7 -0.297531D+00  0.698291D-01  0.000000D+00  0.430850D-02  0.425207D-02
      8  0.571687D-01 -0.634554D-01  0.000000D+00  0.393401D-01 -0.235086D-01
      9  0.000000D+00  0.000000D+00 -0.499371D-01  0.000000D+00  0.000000D+00
     10 -0.102363D+00 -0.348940D-01 -0.900068D-01  0.486857D-02 -0.255917D-02
     11 -0.321763D-01 -0.735264D-01 -0.619271D-01 -0.157605D-01 -0.325091D-01
     12 -0.909365D-01 -0.635356D-01 -0.218006D+00  0.323671D-02 -0.540854D-02
     13 -0.102363D+00 -0.348940D-01  0.900068D-01  0.486857D-02 -0.255917D-02
     14 -0.321763D-01 -0.735264D-01  0.619271D-01 -0.157605D-01 -0.325091D-01
     15  0.909365D-01  0.635356D-01 -0.218006D+00 -0.323671D-02  0.540854D-02
     16 -0.180610D-03 -0.831190D-02  0.000000D+00 -0.481159D+00  0.158881D+00
     17  0.450798D-01 -0.210826D-01  0.000000D+00  0.104029D+00 -0.817936D-01
     18  0.000000D+00  0.000000D+00 -0.102529D-02  0.000000D+00  0.000000D+00
                6             7             8             9            10 
      6  0.446162D-01
      7  0.000000D+00  0.315842D+00
      8  0.000000D+00 -0.777802D-01  0.851260D-01
      9  0.156745D-02  0.000000D+00  0.000000D+00  0.465298D-01
     10  0.187901D-02 -0.126440D-01 -0.968549D-02 -0.265212D-01  0.101770D+00
     11 -0.281313D-01  0.250146D-02  0.479927D-02  0.706389D-02  0.422037D-01
     12  0.867945D-02  0.201294D-03  0.107105D-02  0.646993D-03  0.100311D+00
     13 -0.187901D-02 -0.126440D-01 -0.968549D-02  0.265212D-01  0.758178D-02
     14  0.281313D-01  0.250146D-02  0.479927D-02 -0.706389D-02  0.476430D-02
     15  0.867945D-02 -0.201294D-03 -0.107105D-02  0.646993D-03  0.129242D-01
     16  0.000000D+00  0.266850D-02  0.642411D-03  0.000000D+00  0.787149D-03
     17  0.000000D+00 -0.130388D-02 -0.776052D-02  0.000000D+00  0.170644D-03
     18 -0.315665D-02  0.000000D+00  0.000000D+00  0.545849D-03  0.141376D-02
               11            12            13            14            15 
     11  0.932196D-01
     12  0.759733D-01  0.230525D+00
     13  0.476430D-02 -0.129242D-01  0.101770D+00
     14  0.649774D-02 -0.725372D-02  0.422037D-01  0.932196D-01
     15  0.725372D-02 -0.221240D-01 -0.100311D+00 -0.759733D-01  0.230525D+00
     16 -0.153265D-02  0.111756D-03  0.787149D-03 -0.153265D-02 -0.111756D-03
     17  0.151893D-02 -0.846522D-03  0.170644D-03  0.151893D-02  0.846522D-03
     18 -0.232525D-03  0.278871D-03 -0.141376D-02  0.232525D-03  0.278871D-03
               16            17            18 
     16  0.477097D+00
     17 -0.148146D+00  0.107599D+00
     18  0.000000D+00  0.000000D+00  0.307835D-02
 FormGI is forming the generalized inverse of G from B-inverse, IUseBI=4.
 Force constants in internal coordinates: 
                1             2             3             4             5 
      1  0.346954D+00
      2  0.121435D-01  0.339596D+00
      3  0.179063D-01  0.380714D-02  0.318700D+00
      4  0.179063D-01  0.380714D-02  0.483873D-02  0.318700D+00
      5 -0.214232D-02 -0.189047D-02 -0.122994D-03 -0.122994D-03  0.529024D+00
      6  0.297850D-01  0.209123D-02 -0.441764D-02 -0.441764D-02  0.740875D-02
      7  0.253429D-01 -0.475080D-02 -0.249684D-02 -0.469504D-02 -0.373608D-02
      8  0.253429D-01 -0.475080D-02 -0.469504D-02 -0.249684D-02 -0.373608D-02
      9 -0.279074D-01  0.653227D-02  0.836414D-02 -0.543818D-02 -0.411874D-03
     10 -0.279074D-01  0.653227D-02 -0.543818D-02  0.836414D-02 -0.411874D-03
     11 -0.282078D-01 -0.447945D-02  0.879166D-02  0.879166D-02  0.117849D-02
     12  0.498463D-01  0.321968D-02  0.142800D-03  0.142800D-03  0.144862D-01
     13  0.000000D+00  0.000000D+00 -0.560802D-02  0.560802D-02  0.000000D+00
     14 -0.725828D-03  0.661737D-02  0.390756D-03 -0.654073D-02  0.208441D-02
     15  0.725828D-03 -0.661737D-02  0.654073D-02 -0.390756D-03 -0.208441D-02
                6             7             8             9            10 
      6  0.138510D+00
      7 -0.298126D-01  0.135549D+00
      8 -0.298126D-01 -0.334892D-01  0.135549D+00
      9 -0.390948D-01 -0.356517D-01 -0.105149D-02  0.712057D-01
     10 -0.390948D-01 -0.105149D-02 -0.356517D-01  0.429081D-02  0.712057D-01
     11 -0.766172D-03 -0.403990D-01 -0.403990D-01  0.490047D-02  0.490047D-02
     12  0.203987D-01 -0.560122D-02 -0.560122D-02 -0.540547D-02 -0.540547D-02
     13  0.000000D+00 -0.185727D-01  0.185727D-01 -0.204709D-01  0.204709D-01
     14  0.233815D-01 -0.387681D-02 -0.208108D-01  0.214389D-01  0.217178D-03
     15 -0.233815D-01  0.208108D-01  0.387681D-02 -0.217178D-03 -0.214389D-01
               11            12            13            14            15 
     11  0.731365D-01
     12  0.167820D-02  0.183667D+00
     13  0.000000D+00  0.000000D+00  0.247948D-01
     14 -0.175360D-01  0.318380D-02 -0.108558D-01  0.280684D-01
     15  0.175360D-01 -0.318380D-02 -0.108558D-01 -0.141453D-01  0.280684D-01
 Leave Link  716 at Tue Aug  6 14:42:42 2019, MaxMem=  1835008000 cpu:         0.6
 (Enter /cm/shared/c3ddb/gaussian/09.d01/g09/l103.exe)

 GradGradGradGradGradGradGradGradGradGradGradGradGradGradGradGradGradGrad
 Berny optimization.
 Red2BG is reusing G-inverse.
 Internal  Forces:  Max     0.000002547 RMS     0.000000939
 Search for a local minimum.
 Step number   1 out of a maximum of   25 on scan point     1 out of    46
 All quantities printed in internal units (Hartrees-Bohrs-Radians)
 RMS Force = .97150D-06 SwitMx=.10000D-02 MixMth= 2
 Mixed Optimization -- En-DIIS/RFO-DIIS
 Second derivative matrix not updated -- analytic derivatives used.
 The second derivative matrix:
                          R1        R2        R3        R4        R5
           R1           0.34695
           R2           0.01214   0.33960
           R3           0.01791   0.00381   0.31870
           R4           0.01791   0.00381   0.00484   0.31870
           R5          -0.00214  -0.00189  -0.00012  -0.00012   0.52902
           A1           0.02979   0.00209  -0.00442  -0.00442   0.00741
           A2           0.02534  -0.00475  -0.00250  -0.00470  -0.00374
           A3           0.02534  -0.00475  -0.00470  -0.00250  -0.00374
           A4          -0.02791   0.00653   0.00836  -0.00544  -0.00041
           A5          -0.02791   0.00653  -0.00544   0.00836  -0.00041
           A6          -0.02821  -0.00448   0.00879   0.00879   0.00118
           A7           0.04985   0.00322   0.00014   0.00014   0.01449
           D1           0.00000   0.00000  -0.00561   0.00561   0.00000
           D2          -0.00073   0.00662   0.00039  -0.00654   0.00208
           D3           0.00073  -0.00662   0.00654  -0.00039  -0.00208
                          A1        A2        A3        A4        A5
           A1           0.13851
           A2          -0.02981   0.13555
           A3          -0.02981  -0.03349   0.13555
           A4          -0.03909  -0.03565  -0.00105   0.07121
           A5          -0.03909  -0.00105  -0.03565   0.00429   0.07121
           A6          -0.00077  -0.04040  -0.04040   0.00490   0.00490
           A7           0.02040  -0.00560  -0.00560  -0.00541  -0.00541
           D1           0.00000  -0.01857   0.01857  -0.02047   0.02047
           D2           0.02338  -0.00388  -0.02081   0.02144   0.00022
           D3          -0.02338   0.02081   0.00388  -0.00022  -0.02144
                          A6        A7        D1        D2        D3
           A6           0.07314
           A7           0.00168   0.18367
           D1           0.00000   0.00000   0.02479
           D2          -0.01754   0.00318  -0.01086   0.02807
           D3           0.01754  -0.00318  -0.01086  -0.01415   0.02807
 ITU=  0
     Eigenvalues ---    0.05241   0.08795   0.12987   0.15797   0.17913
     Eigenvalues ---    0.20008   0.31464   0.31978   0.33842   0.39016
     Eigenvalues ---    0.529971000.000001000.000001000.000001000.00000
 RFO step:  Lambda= 0.00000000D+00 EMin= 5.24094204D-02
 Linear search not attempted -- first point.
 Iteration  1 RMS(Cart)=  0.00000324 RMS(Int)=  0.00000000
 Iteration  2 RMS(Cart)=  0.00000000 RMS(Int)=  0.00000000
 Iteration  1 RMS(Cart)=  0.00000000 RMS(Int)=  0.00000000
 ITry= 1 IFail=0 DXMaxC= 6.22D-06 DCOld= 1.00D+10 DXMaxT= 5.00D-02 DXLimC= 3.00D+00 Rises=F
 ClnCor:  largest displacement from symmetrization is 8.75D-14 for atom     5.
 Variable       Old X    -DE/DX   Delta X   Delta X   Delta X     New X
                                 (Linear)    (Quad)   (Total)
    R1        2.68493   0.00000   0.00000   0.00000   0.00000   2.68492
    R2        2.06148   0.00000   0.00000   0.00000   0.00000   2.06148
    R3        2.07609   0.00000   0.00000   0.00000   0.00000   2.07609
    R4        2.07609   0.00000   0.00000   0.00000   0.00000   2.07609
    R5        1.81628   0.00000   0.00000   0.00000   0.00000   1.81628
    A1        1.86566   0.00000   0.00000   0.00000   0.00000   1.86566
    A2        1.96462   0.00000   0.00000   0.00000   0.00000   1.96462
    A3        1.96462   0.00000   0.00000   0.00000   0.00000   1.96462
    A4        1.88524   0.00000   0.00000   0.00000   0.00000   1.88524
    A5        1.88524   0.00000   0.00000   0.00000   0.00000   1.88524
    A6        1.89515   0.00000   0.00000   0.00000   0.00000   1.89515
    A7        1.88193   0.00000   0.00000   0.00000   0.00000   1.88192
    D1        3.14159   0.00000   0.00000   0.00000   0.00000   3.14159
    D2       -1.07442   0.00000   0.00000   0.00000   0.00000  -1.07442
    D3        1.07442   0.00000   0.00000   0.00000   0.00000   1.07442
         Item               Value     Threshold  Converged?
 Maximum Force            0.000003     0.000450     YES
 RMS     Force            0.000001     0.000300     YES
 Maximum Displacement     0.000006     0.001800     YES
 RMS     Displacement     0.000003     0.001200     YES
 Predicted change in Energy=-1.750746D-11
 Optimization completed.
    -- Stationary point found.
                           ----------------------------
                           !   Optimized Parameters   !
                           ! (Angstroms and Degrees)  !
 --------------------------                            --------------------------
 ! Name  Definition              Value          Derivative Info.                !
 --------------------------------------------------------------------------------
 ! R1    R(1,2)                  1.4208         -DE/DX =    0.0                 !
 ! R2    R(1,3)                  1.0909         -DE/DX =    0.0                 !
 ! R3    R(1,4)                  1.0986         -DE/DX =    0.0                 !
 ! R4    R(1,5)                  1.0986         -DE/DX =    0.0                 !
 ! R5    R(2,6)                  0.9611         -DE/DX =    0.0                 !
 ! A1    A(2,1,3)              106.8945         -DE/DX =    0.0                 !
 ! A2    A(2,1,4)              112.5645         -DE/DX =    0.0                 !
 ! A3    A(2,1,5)              112.5645         -DE/DX =    0.0                 !
 ! A4    A(3,1,4)              108.0164         -DE/DX =    0.0                 !
 ! A5    A(3,1,5)              108.0164         -DE/DX =    0.0                 !
 ! A6    A(4,1,5)              108.5841         -DE/DX =    0.0                 !
 ! A7    A(1,2,6)              107.8265         -DE/DX =    0.0                 !
 ! D1    D(3,1,2,6)            180.0            -DE/DX =    0.0                 !
 ! D2    D(4,1,2,6)            -61.5599         -DE/DX =    0.0                 !
 ! D3    D(5,1,2,6)             61.5599         -DE/DX =    0.0                 !
 --------------------------------------------------------------------------------
 Lowest energy point so far.  Saving SCF results.
 Iteration  1 RMS(Cart)=  0.02330170 RMS(Int)=  0.02321955
 Iteration  2 RMS(Cart)=  0.00072442 RMS(Int)=  0.02320518
 Iteration  3 RMS(Cart)=  0.00003488 RMS(Int)=  0.02320516
 Iteration  4 RMS(Cart)=  0.00000156 RMS(Int)=  0.02320516
 Iteration  5 RMS(Cart)=  0.00000008 RMS(Int)=  0.02320516
 Iteration  1 RMS(Cart)=  0.00966146 RMS(Int)=  0.00959631
 Iteration  2 RMS(Cart)=  0.00400127 RMS(Int)=  0.01069371
 Iteration  3 RMS(Cart)=  0.00165353 RMS(Int)=  0.01168774
 Iteration  4 RMS(Cart)=  0.00068255 RMS(Int)=  0.01216595
 Iteration  5 RMS(Cart)=  0.00028161 RMS(Int)=  0.01237316
 Iteration  6 RMS(Cart)=  0.00011616 RMS(Int)=  0.01246021
 Iteration  7 RMS(Cart)=  0.00004791 RMS(Int)=  0.01249638
 Iteration  8 RMS(Cart)=  0.00001976 RMS(Int)=  0.01251134
 Iteration  9 RMS(Cart)=  0.00000815 RMS(Int)=  0.01251751
 Iteration 10 RMS(Cart)=  0.00000336 RMS(Int)=  0.01252006
 Iteration 11 RMS(Cart)=  0.00000139 RMS(Int)=  0.01252111
 Iteration 12 RMS(Cart)=  0.00000057 RMS(Int)=  0.01252155
 GradGradGradGradGradGradGradGradGradGradGradGradGradGradGradGradGradGrad

 Leave Link  103 at Tue Aug  6 14:42:51 2019, MaxMem=  1835008000 cpu:        45.7
 (Enter /cm/shared/c3ddb/gaussian/09.d01/g09/l202.exe)
                          Input orientation:                          
 ---------------------------------------------------------------------
 Center     Atomic      Atomic             Coordinates (Angstroms)
 Number     Number       Type             X           Y           Z
 ---------------------------------------------------------------------
      1          6           0       -0.045925    0.653583   -0.031499
      2          8           0       -0.058177   -0.767135   -0.021908
      3          1           0       -1.083683    0.982476    0.041298
      4          1           0        0.430839    1.048250    0.876222
      5          1           0        0.452750    1.093363   -0.906112
      6          1           0        0.852296   -1.068838    0.041999
 ---------------------------------------------------------------------
                    Distance matrix (angstroms):
                    1          2          3          4          5
     1  C    0.000000
     2  O    1.420803   0.000000
     3  H    1.091060   2.028989   0.000000
     4  H    1.098645   2.083601   1.730665   0.000000
     5  H    1.098649   2.122337   1.808455   1.783039   0.000000
     6  H    1.943949   0.961285   2.820621   2.314220   2.394507
                    6
     6  H    0.000000
 Stoichiometry    CH4O
 Framework group  C1[X(CH4O)]
 Deg. of freedom    12
 Full point group                 C1      NOp   1
 Omega: Change in point group or standard orientation.

 Old FWG=CS   [SG(C1H2O1),X(H2)]
 New FWG=C01  [X(C1H4O1)]
 RotChk:  IX=3 Diff= 1.90D+00
 Largest Abelian subgroup         C1      NOp   1
 Largest concise Abelian subgroup C1      NOp   1
                         Standard orientation:                         
 ---------------------------------------------------------------------
 Center     Atomic      Atomic             Coordinates (Angstroms)
 Number     Number       Type             X           Y           Z
 ---------------------------------------------------------------------
      1          6           0       -0.663567    0.019345   -0.009040
      2          8           0        0.750292   -0.120827   -0.015098
      3          1           0       -1.084208   -0.986947    0.020099
      4          1           0       -1.007739    0.487231    0.923510
      5          1           0       -1.062259    0.595298   -0.855416
      6          1           0        1.133267    0.754964    0.086834
 ---------------------------------------------------------------------
 Rotational constants (GHZ):    128.1581133     24.7191480     23.8710648
 Leave Link  202 at Tue Aug  6 14:42:52 2019, MaxMem=  1835008000 cpu:         0.6
 (Enter /cm/shared/c3ddb/gaussian/09.d01/g09/l301.exe)
 Standard basis: 6-311G(2d,d,p) (5D, 7F)
 Ernie: Thresh=  0.10000D-02 Tol=  0.10000D-05 Strict=F.
 There are    62 symmetry adapted cartesian basis functions of A   symmetry.
 There are    60 symmetry adapted basis functions of A   symmetry.
    60 basis functions,    96 primitive gaussians,    62 cartesian basis functions
     9 alpha electrons        9 beta electrons
       nuclear repulsion energy        40.2501835383 Hartrees.
 IExCor=  402 DFT=T Ex+Corr=B3LYP ExCW=0 ScaHFX=  0.200000
 ScaDFX=  0.800000  0.720000  1.000000  0.810000 ScalE2=  1.000000  1.000000
 IRadAn=      5 IRanWt=     -1 IRanGd=            0 ICorTp=0 IEmpDi=  4
 NAtoms=    6 NActive=    6 NUniq=    6 SFac= 1.00D+00 NAtFMM=   60 NAOKFM=F Big=F
 Integral buffers will be    131072 words long.
 Raffenetti 2 integral format.
 Two-electron integral symmetry is turned on.
 Leave Link  301 at Tue Aug  6 14:42:52 2019, MaxMem=  1835008000 cpu:         0.3
 (Enter /cm/shared/c3ddb/gaussian/09.d01/g09/l302.exe)
 NPDir=0 NMtPBC=     1 NCelOv=     1 NCel=       1 NClECP=     1 NCelD=      1
         NCelK=      1 NCelE2=     1 NClLst=     1 CellRange=     0.0.
 One-electron integrals computed using PRISM.
 NBasis=    60 RedAO= T EigKep=  8.93D-03  NBF=    60
 NBsUse=    60 1.00D-06 EigRej= -1.00D+00 NBFU=    60
 Precomputing XC quadrature grid using
 IXCGrd= 4 IRadAn=           5 IRanWt=          -1 IRanGd=           0 AccXCQ= 0.00D+00.
 Generated NRdTot=       0 NPtTot=           0 NUsed=           0 NTot=          32
 NSgBfM=    62    62    62    62    62 MxSgAt=     6 MxSgA2=     6.
 Leave Link  302 at Tue Aug  6 14:42:53 2019, MaxMem=  1835008000 cpu:         3.8
 (Enter /cm/shared/c3ddb/gaussian/09.d01/g09/l303.exe)
 DipDrv:  MaxL=1.
 Leave Link  303 at Tue Aug  6 14:42:53 2019, MaxMem=  1835008000 cpu:         1.3
 (Enter /cm/shared/c3ddb/gaussian/09.d01/g09/l401.exe)
 Initial guess from the checkpoint file:  "check.chk"
 B after Tr=     0.000000    0.000000    0.000000
         Rot=    0.741151   -0.021054    0.014146   -0.670860 Ang= -84.34 deg.
 Guess basis will be translated and rotated to current coordinates.
 JPrj=2 DoOrth=T DoCkMO=T.
 Generating alternative initial guess.
 ExpMin= 1.03D-01 ExpMax= 8.59D+03 ExpMxC= 1.30D+03 IAcc=2 IRadAn=         4 AccDes= 0.00D+00
 Harris functional with IExCor=  402 and IRadAn=       4 diagonalized for initial guess.
 HarFok:  IExCor=  402 AccDes= 0.00D+00 IRadAn=         4 IDoV= 1 UseB2=F ITyADJ=14
 ICtDFT=  3500011 ScaDFX=  1.000000  1.000000  1.000000  1.000000
 FoFCou: FMM=F IPFlag=           0 FMFlag=      100000 FMFlg1=           0
         NFxFlg=           0 DoJE=T BraDBF=F KetDBF=T FulRan=T
         wScrn=  0.000000 ICntrl=     500 IOpCl=  0 I1Cent=   200000004 NGrid=           0
         NMat0=    1 NMatS0=      1 NMatT0=    0 NMatD0=    1 NMtDS0=    0 NMtDT0=    0
 Petite list used in FoFCou.
 Harris En= -115.792257935129    
 Leave Link  401 at Tue Aug  6 14:42:55 2019, MaxMem=  1835008000 cpu:         9.4
 (Enter /cm/shared/c3ddb/gaussian/09.d01/g09/l502.exe)
 Closed shell SCF:
 Using DIIS extrapolation, IDIIS=  1040.
 Integral symmetry usage will be decided dynamically.
 Keep R1 ints in memory in canonical form, NReq=2577819.
 IVT=       18440 IEndB=       18440 NGot=  1835008000 MDV=  1833314196
 LenX=  1833314196 LenY=  1833309911
 Requested convergence on RMS density matrix=1.00D-08 within  64 cycles.
 Requested convergence on MAX density matrix=1.00D-06.
 Requested convergence on             energy=1.00D-06.
 No special actions if energy rises.
 FoFCou: FMM=F IPFlag=           0 FMFlag=           0 FMFlg1=           0
         NFxFlg=           0 DoJE=F BraDBF=F KetDBF=F FulRan=T
         wScrn=  0.000000 ICntrl=     600 IOpCl=  0 I1Cent=           0 NGrid=           0
         NMat0=    1 NMatS0=   1830 NMatT0=    0 NMatD0=    1 NMtDS0=    0 NMtDT0=    0
 Symmetry not used in FoFCou.
 Integral accuracy reduced to 1.0D-05 until final iterations.

 Cycle   1  Pass 0  IDiag  1:
 E= -115.755738221009    
 DIIS: error= 3.45D-03 at cycle   1 NSaved=   1.
 NSaved= 1 IEnMin= 1 EnMin= -115.755738221009     IErMin= 1 ErrMin= 3.45D-03
 ErrMax= 3.45D-03  0.00D+00 EMaxC= 1.00D-01 BMatC= 7.17D-04 BMatP= 7.17D-04
 IDIUse=3 WtCom= 9.65D-01 WtEn= 3.45D-02
 Coeff-Com:  0.100D+01
 Coeff-En:   0.100D+01
 Coeff:      0.100D+01
 Gap=     0.613 Goal=   None    Shift=    0.000
 GapD=    0.613 DampG=2.000 DampE=1.000 DampFc=2.0000 IDamp=-1.
 RMSDP=5.49D-04 MaxDP=6.45D-03              OVMax= 1.52D-02

 Cycle   2  Pass 0  IDiag  1:
 E= -115.756676617359     Delta-E=       -0.000938396350 Rises=F Damp=F
 DIIS: error= 3.23D-04 at cycle   2 NSaved=   2.
 NSaved= 2 IEnMin= 2 EnMin= -115.756676617359     IErMin= 2 ErrMin= 3.23D-04
 ErrMax= 3.23D-04  0.00D+00 EMaxC= 1.00D-01 BMatC= 6.89D-06 BMatP= 7.17D-04
 IDIUse=3 WtCom= 9.97D-01 WtEn= 3.23D-03
 Coeff-Com: -0.438D-01 0.104D+01
 Coeff-En:   0.000D+00 0.100D+01
 Coeff:     -0.437D-01 0.104D+01
 Gap=     0.309 Goal=   None    Shift=    0.000
 RMSDP=6.75D-05 MaxDP=7.71D-04 DE=-9.38D-04 OVMax= 1.98D-03

 Cycle   3  Pass 0  IDiag  1:
 E= -115.756685256707     Delta-E=       -0.000008639348 Rises=F Damp=F
 DIIS: error= 1.53D-04 at cycle   3 NSaved=   3.
 NSaved= 3 IEnMin= 3 EnMin= -115.756685256707     IErMin= 3 ErrMin= 1.53D-04
 ErrMax= 1.53D-04  0.00D+00 EMaxC= 1.00D-01 BMatC= 1.43D-06 BMatP= 6.89D-06
 IDIUse=3 WtCom= 9.98D-01 WtEn= 1.53D-03
 Coeff-Com: -0.174D-01 0.306D+00 0.711D+00
 Coeff-En:   0.000D+00 0.000D+00 0.100D+01
 Coeff:     -0.173D-01 0.306D+00 0.712D+00
 Gap=     0.309 Goal=   None    Shift=    0.000
 RMSDP=1.92D-05 MaxDP=2.75D-04 DE=-8.64D-06 OVMax= 4.30D-04

 Cycle   4  Pass 0  IDiag  1:
 E= -115.756685914151     Delta-E=       -0.000000657443 Rises=F Damp=F
 DIIS: error= 1.16D-04 at cycle   4 NSaved=   4.
 NSaved= 4 IEnMin= 4 EnMin= -115.756685914151     IErMin= 4 ErrMin= 1.16D-04
 ErrMax= 1.16D-04  0.00D+00 EMaxC= 1.00D-01 BMatC= 6.56D-07 BMatP= 1.43D-06
 IDIUse=3 WtCom= 9.99D-01 WtEn= 1.16D-03
 Coeff-Com: -0.474D-02 0.612D-01 0.409D+00 0.535D+00
 Coeff-En:   0.000D+00 0.000D+00 0.280D+00 0.720D+00
 Coeff:     -0.473D-02 0.611D-01 0.409D+00 0.535D+00
 Gap=     0.309 Goal=   None    Shift=    0.000
 RMSDP=8.12D-06 MaxDP=1.32D-04 DE=-6.57D-07 OVMax= 1.86D-04

 Initial convergence to 1.0D-05 achieved.  Increase integral accuracy.
 Cycle   5  Pass 1  IDiag  1:
 E= -115.756686350366     Delta-E=       -0.000000436216 Rises=F Damp=F
 DIIS: error= 1.40D-05 at cycle   1 NSaved=   1.
 NSaved= 1 IEnMin= 1 EnMin= -115.756686350366     IErMin= 1 ErrMin= 1.40D-05
 ErrMax= 1.40D-05  0.00D+00 EMaxC= 1.00D-01 BMatC= 1.49D-08 BMatP= 1.49D-08
 IDIUse=1 WtCom= 1.00D+00 WtEn= 0.00D+00
 Coeff-Com:  0.100D+01
 Coeff:      0.100D+01
 Gap=     0.309 Goal=   None    Shift=    0.000
 RMSDP=8.12D-06 MaxDP=1.32D-04 DE=-4.36D-07 OVMax= 5.96D-05

 Cycle   6  Pass 1  IDiag  1:
 E= -115.756686342014     Delta-E=        0.000000008352 Rises=F Damp=F
 DIIS: error= 2.14D-05 at cycle   2 NSaved=   2.
 NSaved= 2 IEnMin= 1 EnMin= -115.756686350366     IErMin= 1 ErrMin= 1.40D-05
 ErrMax= 2.14D-05  0.00D+00 EMaxC= 1.00D-01 BMatC= 2.90D-08 BMatP= 1.49D-08
 IDIUse=1 WtCom= 1.00D+00 WtEn= 0.00D+00
 Coeff-Com:  0.585D+00 0.415D+00
 Coeff:      0.585D+00 0.415D+00
 Gap=     0.309 Goal=   None    Shift=    0.000
 RMSDP=1.45D-06 MaxDP=2.18D-05 DE= 8.35D-09 OVMax= 3.55D-05

 Cycle   7  Pass 1  IDiag  1:
 E= -115.756686362560     Delta-E=       -0.000000020545 Rises=F Damp=F
 DIIS: error= 2.03D-06 at cycle   3 NSaved=   3.
 NSaved= 3 IEnMin= 3 EnMin= -115.756686362560     IErMin= 3 ErrMin= 2.03D-06
 ErrMax= 2.03D-06  0.00D+00 EMaxC= 1.00D-01 BMatC= 2.27D-10 BMatP= 1.49D-08
 IDIUse=1 WtCom= 1.00D+00 WtEn= 0.00D+00
 Coeff-Com:  0.156D+00 0.142D+00 0.702D+00
 Coeff:      0.156D+00 0.142D+00 0.702D+00
 Gap=     0.309 Goal=   None    Shift=    0.000
 RMSDP=2.12D-07 MaxDP=2.51D-06 DE=-2.05D-08 OVMax= 5.07D-06

 Cycle   8  Pass 1  IDiag  1:
 E= -115.756686362714     Delta-E=       -0.000000000155 Rises=F Damp=F
 DIIS: error= 6.60D-07 at cycle   4 NSaved=   4.
 NSaved= 4 IEnMin= 4 EnMin= -115.756686362714     IErMin= 4 ErrMin= 6.60D-07
 ErrMax= 6.60D-07  0.00D+00 EMaxC= 1.00D-01 BMatC= 3.39D-11 BMatP= 2.27D-10
 IDIUse=1 WtCom= 1.00D+00 WtEn= 0.00D+00
 Coeff-Com:  0.249D-01 0.325D-01 0.320D+00 0.622D+00
 Coeff:      0.249D-01 0.325D-01 0.320D+00 0.622D+00
 Gap=     0.309 Goal=   None    Shift=    0.000
 RMSDP=7.76D-08 MaxDP=1.36D-06 DE=-1.55D-10 OVMax= 1.78D-06

 Cycle   9  Pass 1  IDiag  1:
 E= -115.756686362745     Delta-E=       -0.000000000030 Rises=F Damp=F
 DIIS: error= 1.63D-07 at cycle   5 NSaved=   5.
 NSaved= 5 IEnMin= 5 EnMin= -115.756686362745     IErMin= 5 ErrMin= 1.63D-07
 ErrMax= 1.63D-07  0.00D+00 EMaxC= 1.00D-01 BMatC= 1.50D-12 BMatP= 3.39D-11
 IDIUse=1 WtCom= 1.00D+00 WtEn= 0.00D+00
 Coeff-Com: -0.140D-01-0.931D-02 0.896D-02 0.185D+00 0.829D+00
 Coeff:     -0.140D-01-0.931D-02 0.896D-02 0.185D+00 0.829D+00
 Gap=     0.309 Goal=   None    Shift=    0.000
 RMSDP=2.40D-08 MaxDP=2.71D-07 DE=-3.04D-11 OVMax= 6.68D-07

 Cycle  10  Pass 1  IDiag  1:
 E= -115.756686362746     Delta-E=       -0.000000000002 Rises=F Damp=F
 DIIS: error= 2.48D-08 at cycle   6 NSaved=   6.
 NSaved= 6 IEnMin= 6 EnMin= -115.756686362746     IErMin= 6 ErrMin= 2.48D-08
 ErrMax= 2.48D-08  0.00D+00 EMaxC= 1.00D-01 BMatC= 2.16D-14 BMatP= 1.50D-12
 IDIUse=1 WtCom= 1.00D+00 WtEn= 0.00D+00
 Coeff-Com: -0.513D-02-0.373D-02-0.415D-02 0.408D-01 0.238D+00 0.734D+00
 Coeff:     -0.513D-02-0.373D-02-0.415D-02 0.408D-01 0.238D+00 0.734D+00
 Gap=     0.309 Goal=   None    Shift=    0.000
 RMSDP=2.31D-09 MaxDP=2.84D-08 DE=-1.68D-12 OVMax= 6.23D-08

 SCF Done:  E(RB3LYP) =  -115.756686363     A.U. after   10 cycles
            NFock= 10  Conv=0.23D-08     -V/T= 2.0032
 KE= 1.153918022557D+02 PE=-3.523923015866D+02 EE= 8.099362942988D+01
 Leave Link  502 at Tue Aug  6 14:43:04 2019, MaxMem=  1835008000 cpu:        55.3
 (Enter /cm/shared/c3ddb/gaussian/09.d01/g09/l508.exe)
 QCSCF skips out because SCF is already converged.
 Leave Link  508 at Tue Aug  6 14:43:04 2019, MaxMem=  1835008000 cpu:         0.0
 (Enter /cm/shared/c3ddb/gaussian/09.d01/g09/l701.exe)
 Compute integral first derivatives.
 ... and contract with generalized density number  0.
 Leave Link  701 at Tue Aug  6 14:43:06 2019, MaxMem=  1835008000 cpu:         6.5
 (Enter /cm/shared/c3ddb/gaussian/09.d01/g09/l702.exe)
 L702 exits ... SP integral derivatives will be done elsewhere.
 Leave Link  702 at Tue Aug  6 14:43:06 2019, MaxMem=  1835008000 cpu:         0.1
 (Enter /cm/shared/c3ddb/gaussian/09.d01/g09/l703.exe)
 Compute integral first derivatives, UseDBF=F ICtDFT=           0.
 Integral derivatives from FoFJK, PRISM(SPDF).
 Calling FoFJK, ICntrl=      2127 FMM=F ISym2X=0 I1Cent= 0 IOpClX= 0 NMat=1 NMatS=1 NMatT=0.
 FoFJK:  IHMeth= 1 ICntrl=    2127 DoSepK=F KAlg= 0 I1Cent=   0 FoldK=F
 IRaf=         0 NMat=   1 IRICut=       1 DoRegI=T DoRafI=F ISym2E= 0.
 FoFCou: FMM=F IPFlag=           0 FMFlag=      100000 FMFlg1=         800
         NFxFlg=           0 DoJE=F BraDBF=F KetDBF=F FulRan=T
         wScrn=  0.000000 ICntrl=    2127 IOpCl=  0 I1Cent=           0 NGrid=           0
         NMat0=    1 NMatS0=      1 NMatT0=    0 NMatD0=    1 NMtDS0=    0 NMtDT0=    0
 Symmetry not used in FoFCou.
 Leave Link  703 at Tue Aug  6 14:43:08 2019, MaxMem=  1835008000 cpu:        10.4
 (Enter /cm/shared/c3ddb/gaussian/09.d01/g09/l716.exe)
 Dipole        =-3.15414845D-01 5.92632734D-01 8.05107110D-02
 ***** Axes restored to original set *****
 -------------------------------------------------------------------
 Center     Atomic                   Forces (Hartrees/Bohr)
 Number     Number              X              Y              Z
 -------------------------------------------------------------------
      1        6           0.000512016    0.000184444    0.012680715
      2        8          -0.000089025   -0.000149890   -0.003435371
      3        1          -0.000505814   -0.000134969   -0.007022154
      4        1           0.003554874    0.001437478   -0.000789560
      5        1          -0.003301764   -0.001449603   -0.000998692
      6        1          -0.000170287    0.000112539   -0.000434938
 -------------------------------------------------------------------
 Cartesian Forces:  Max     0.012680715 RMS     0.003742190
 Leave Link  716 at Tue Aug  6 14:43:08 2019, MaxMem=  1835008000 cpu:         0.1
 (Enter /cm/shared/c3ddb/gaussian/09.d01/g09/l103.exe)

 GradGradGradGradGradGradGradGradGradGradGradGradGradGradGradGradGradGrad
 Berny optimization.
 FormGI is forming the generalized inverse of G from B-inverse, IUseBI=4.
 Internal  Forces:  Max     0.005952722 RMS     0.003051631
 Search for a local minimum.
 Step number   1 out of a maximum of   25 on scan point     2 out of    46
 All quantities printed in internal units (Hartrees-Bohrs-Radians)
 RMS Force = .23812D-02 SwitMx=.10000D-02 MixMth= 1
 Mixed Optimization -- RFO/linear search
 Second derivative matrix not updated -- first step.
 The second derivative matrix:
                          R1        R2        R3        R4        R5
           R1           0.34695
           R2           0.01214   0.33960
           R3           0.01791   0.00381   0.31870
           R4           0.01791   0.00381   0.00484   0.31870
           R5          -0.00214  -0.00189  -0.00012  -0.00012   0.52902
           A1           0.02979   0.00209  -0.00442  -0.00442   0.00741
           A2           0.02534  -0.00475  -0.00250  -0.00470  -0.00374
           A3           0.02534  -0.00475  -0.00470  -0.00250  -0.00374
           A4          -0.02791   0.00653   0.00836  -0.00544  -0.00041
           A5          -0.02791   0.00653  -0.00544   0.00836  -0.00041
           A6          -0.02821  -0.00448   0.00879   0.00879   0.00118
           A7           0.04985   0.00322   0.00014   0.00014   0.01449
           D1           0.00000   0.00000  -0.00561   0.00561   0.00000
           D2          -0.00073   0.00662   0.00039  -0.00654   0.00208
           D3           0.00073  -0.00662   0.00654  -0.00039  -0.00208
                          A1        A2        A3        A4        A5
           A1           0.13851
           A2          -0.02981   0.13555
           A3          -0.02981  -0.03349   0.13555
           A4          -0.03909  -0.03565  -0.00105   0.07121
           A5          -0.03909  -0.00105  -0.03565   0.00429   0.07121
           A6          -0.00077  -0.04040  -0.04040   0.00490   0.00490
           A7           0.02040  -0.00560  -0.00560  -0.00541  -0.00541
           D1           0.00000  -0.01857   0.01857  -0.02047   0.02047
           D2           0.02338  -0.00388  -0.02081   0.02144   0.00022
           D3          -0.02338   0.02081   0.00388  -0.00022  -0.02144
                          A6        A7        D1        D2        D3
           A6           0.07314
           A7           0.00168   0.18367
           D1           0.00000   0.00000   0.02479
           D2          -0.01754   0.00318  -0.01086   0.02807
           D3           0.01754  -0.00318  -0.01086  -0.01415   0.02807
 ITU=  0
     Eigenvalues ---    0.05223   0.08793   0.12973   0.15784   0.17887
     Eigenvalues ---    0.20001   0.31464   0.31975   0.33841   0.39011
     Eigenvalues ---    0.529971000.000001000.000001000.000001000.00000
 RFO step:  Lambda=-1.21667632D-03 EMin= 5.22325601D-02
 Linear search not attempted -- first point.
 Maximum step size (   0.050) exceeded in Quadratic search.
    -- Step size scaled by   0.571
 Iteration  1 RMS(Cart)=  0.01493566 RMS(Int)=  0.00030670
 Iteration  2 RMS(Cart)=  0.00023490 RMS(Int)=  0.00015288
 Iteration  3 RMS(Cart)=  0.00000008 RMS(Int)=  0.00015288
 Iteration  1 RMS(Cart)=  0.00000729 RMS(Int)=  0.00000725
 Iteration  2 RMS(Cart)=  0.00000302 RMS(Int)=  0.00000808
 Iteration  3 RMS(Cart)=  0.00000125 RMS(Int)=  0.00000883
 Iteration  4 RMS(Cart)=  0.00000052 RMS(Int)=  0.00000919
 ITry= 1 IFail=0 DXMaxC= 2.72D-02 DCOld= 1.00D+10 DXMaxT= 5.00D-02 DXLimC= 3.00D+00 Rises=F
 Variable       Old X    -DE/DX   Delta X   Delta X   Delta X     New X
                                 (Linear)    (Quad)   (Total)
    R1        2.68493   0.00001   0.00000   0.00040   0.00040   2.68533
    R2        2.06181  -0.00003   0.00000  -0.00009  -0.00009   2.06172
    R3        2.07614   0.00141   0.00000  -0.00005  -0.00005   2.07609
    R4        2.07615  -0.00128   0.00000   0.00012   0.00012   2.07627
    R5        1.81657  -0.00023   0.00000  -0.00022  -0.00022   1.81635
    A1        1.86792  -0.00027   0.00000  -0.00050  -0.00078   1.86714
    A2        1.93625   0.00448   0.00000   0.01612   0.01601   1.95226
    A3        1.99276  -0.00437   0.00000  -0.01573  -0.01590   1.97686
    A4        1.82280   0.00531   0.00000   0.03303   0.03282   1.85561
    A5        1.94354  -0.00441   0.00000  -0.02925  -0.02957   1.91397
    A6        1.89333   0.00014   0.00000   0.00058   0.00055   1.89388
    A7        1.88191  -0.00009   0.00000  -0.00015  -0.00015   1.88175
    D1       -3.00197  -0.00595   0.00000   0.00000   0.00000  -3.00197
    D2       -1.02361   0.00240   0.00000   0.04678   0.04694  -0.97667
    D3        1.12213   0.00282   0.00000   0.04841   0.04817   1.17030
         Item               Value     Threshold  Converged?
 Maximum Force            0.004794     0.000450     NO 
 RMS     Force            0.002381     0.000300     NO 
 Maximum Displacement     0.027175     0.001800     NO 
 RMS     Displacement     0.014936     0.001200     NO 
 Predicted change in Energy=-5.003956D-04
 Lowest energy point so far.  Saving SCF results.
 GradGradGradGradGradGradGradGradGradGradGradGradGradGradGradGradGradGrad

 Leave Link  103 at Tue Aug  6 14:43:16 2019, MaxMem=  1835008000 cpu:        35.9
 (Enter /cm/shared/c3ddb/gaussian/09.d01/g09/l202.exe)
                          Input orientation:                          
 ---------------------------------------------------------------------
 Center     Atomic      Atomic             Coordinates (Angstroms)
 Number     Number       Type             X           Y           Z
 ---------------------------------------------------------------------
      1          6           0       -0.045189    0.654119   -0.020304
      2          8           0       -0.057468   -0.766773   -0.034570
      3          1           0       -1.084876    0.981247    0.028169
      4          1           0        0.445219    1.049871    0.879609
      5          1           0        0.439625    1.092825   -0.903291
      6          1           0        0.850788   -1.069590    0.050388
 ---------------------------------------------------------------------
                    Distance matrix (angstroms):
                    1          2          3          4          5
     1  C    0.000000
     2  O    1.421017   0.000000
     3  H    1.091014   2.028565   0.000000
     4  H    1.098619   2.094902   1.752384   0.000000
     5  H    1.098714   2.111843   1.790020   1.783425   0.000000
     6  H    1.943951   0.961169   2.820146   2.311755   2.398874
                    6
     6  H    0.000000
 Stoichiometry    CH4O
 Framework group  C1[X(CH4O)]
 Deg. of freedom    12
 Full point group                 C1      NOp   1
 RotChk:  IX=1 Diff= 1.31D-01
 Largest Abelian subgroup         C1      NOp   1
 Largest concise Abelian subgroup C1      NOp   1
                         Standard orientation:                         
 ---------------------------------------------------------------------
 Center     Atomic      Atomic             Coordinates (Angstroms)
 Number     Number       Type             X           Y           Z
 ---------------------------------------------------------------------
      1          6           0       -0.663703    0.018950   -0.004508
      2          8           0        0.750347   -0.121564   -0.007190
      3          1           0       -1.083344   -0.983826    0.088518
      4          1           0       -1.016935    0.583673    0.869150
      5          1           0       -1.053731    0.500214   -0.911942
      6          1           0        1.133449    0.758754    0.038844
 ---------------------------------------------------------------------
 Rotational constants (GHZ):    128.0978723     24.7143774     23.8671992
 Leave Link  202 at Tue Aug  6 14:43:16 2019, MaxMem=  1835008000 cpu:         0.6
 (Enter /cm/shared/c3ddb/gaussian/09.d01/g09/l301.exe)
 Standard basis: 6-311G(2d,d,p) (5D, 7F)
 Ernie: Thresh=  0.10000D-02 Tol=  0.10000D-05 Strict=F.
 There are    62 symmetry adapted cartesian basis functions of A   symmetry.
 There are    60 symmetry adapted basis functions of A   symmetry.
    60 basis functions,    96 primitive gaussians,    62 cartesian basis functions
     9 alpha electrons        9 beta electrons
       nuclear repulsion energy        40.2464702195 Hartrees.
 IExCor=  402 DFT=T Ex+Corr=B3LYP ExCW=0 ScaHFX=  0.200000
 ScaDFX=  0.800000  0.720000  1.000000  0.810000 ScalE2=  1.000000  1.000000
 IRadAn=      5 IRanWt=     -1 IRanGd=            0 ICorTp=0 IEmpDi=  4
 NAtoms=    6 NActive=    6 NUniq=    6 SFac= 1.00D+00 NAtFMM=   60 NAOKFM=F Big=F
 Integral buffers will be    131072 words long.
 Raffenetti 2 integral format.
 Two-electron integral symmetry is turned on.
 Leave Link  301 at Tue Aug  6 14:43:17 2019, MaxMem=  1835008000 cpu:         0.8
 (Enter /cm/shared/c3ddb/gaussian/09.d01/g09/l302.exe)
 NPDir=0 NMtPBC=     1 NCelOv=     1 NCel=       1 NClECP=     1 NCelD=      1
         NCelK=      1 NCelE2=     1 NClLst=     1 CellRange=     0.0.
 One-electron integrals computed using PRISM.
 NBasis=    60 RedAO= T EigKep=  8.99D-03  NBF=    60
 NBsUse=    60 1.00D-06 EigRej= -1.00D+00 NBFU=    60
 Precomputing XC quadrature grid using
 IXCGrd= 4 IRadAn=           5 IRanWt=          -1 IRanGd=           0 AccXCQ= 0.00D+00.
 Generated NRdTot=       0 NPtTot=           0 NUsed=           0 NTot=          32
 NSgBfM=    62    62    62    62    62 MxSgAt=     6 MxSgA2=     6.
 Leave Link  302 at Tue Aug  6 14:43:18 2019, MaxMem=  1835008000 cpu:         6.7
 (Enter /cm/shared/c3ddb/gaussian/09.d01/g09/l303.exe)
 DipDrv:  MaxL=1.
 Leave Link  303 at Tue Aug  6 14:43:18 2019, MaxMem=  1835008000 cpu:         1.4
 (Enter /cm/shared/c3ddb/gaussian/09.d01/g09/l401.exe)
 Initial guess from the checkpoint file:  "check.chk"
 B after Tr=     0.000000    0.000000    0.000000
         Rot=    0.999011    0.044449    0.001179   -0.000074 Ang=   5.10 deg.
 Guess basis will be translated and rotated to current coordinates.
 JPrj=2 DoOrth=T DoCkMO=T.
 Generating alternative initial guess.
 ExpMin= 1.03D-01 ExpMax= 8.59D+03 ExpMxC= 1.30D+03 IAcc=2 IRadAn=         4 AccDes= 0.00D+00
 Harris functional with IExCor=  402 and IRadAn=       4 diagonalized for initial guess.
 HarFok:  IExCor=  402 AccDes= 0.00D+00 IRadAn=         4 IDoV= 1 UseB2=F ITyADJ=14
 ICtDFT=  3500011 ScaDFX=  1.000000  1.000000  1.000000  1.000000
 FoFCou: FMM=F IPFlag=           0 FMFlag=      100000 FMFlg1=           0
         NFxFlg=           0 DoJE=T BraDBF=F KetDBF=T FulRan=T
         wScrn=  0.000000 ICntrl=     500 IOpCl=  0 I1Cent=   200000004 NGrid=           0
         NMat0=    1 NMatS0=      1 NMatT0=    0 NMatD0=    1 NMtDS0=    0 NMtDT0=    0
 Petite list used in FoFCou.
 Harris En= -115.792734057693    
 Leave Link  401 at Tue Aug  6 14:43:21 2019, MaxMem=  1835008000 cpu:        12.5
 (Enter /cm/shared/c3ddb/gaussian/09.d01/g09/l502.exe)
 Closed shell SCF:
 Using DIIS extrapolation, IDIIS=  1040.
 Integral symmetry usage will be decided dynamically.
 Keep R1 ints in memory in canonical form, NReq=2577819.
 IVT=       18440 IEndB=       18440 NGot=  1835008000 MDV=  1833314196
 LenX=  1833314196 LenY=  1833309911
 Requested convergence on RMS density matrix=1.00D-08 within  64 cycles.
 Requested convergence on MAX density matrix=1.00D-06.
 Requested convergence on             energy=1.00D-06.
 No special actions if energy rises.
 FoFCou: FMM=F IPFlag=           0 FMFlag=           0 FMFlg1=           0
         NFxFlg=           0 DoJE=F BraDBF=F KetDBF=F FulRan=T
         wScrn=  0.000000 ICntrl=     600 IOpCl=  0 I1Cent=           0 NGrid=           0
         NMat0=    1 NMatS0=   1830 NMatT0=    0 NMatD0=    1 NMtDS0=    0 NMtDT0=    0
 Symmetry not used in FoFCou.
 Integral accuracy reduced to 1.0D-05 until final iterations.

 Cycle   1  Pass 0  IDiag  1:
 E= -115.757032240438    
 DIIS: error= 1.51D-03 at cycle   1 NSaved=   1.
 NSaved= 1 IEnMin= 1 EnMin= -115.757032240438     IErMin= 1 ErrMin= 1.51D-03
 ErrMax= 1.51D-03  0.00D+00 EMaxC= 1.00D-01 BMatC= 1.26D-04 BMatP= 1.26D-04
 IDIUse=3 WtCom= 9.85D-01 WtEn= 1.51D-02
 Coeff-Com:  0.100D+01
 Coeff-En:   0.100D+01
 Coeff:      0.100D+01
 Gap=     0.613 Goal=   None    Shift=    0.000
 GapD=    0.613 DampG=2.000 DampE=1.000 DampFc=2.0000 IDamp=-1.
 RMSDP=2.39D-04 MaxDP=2.88D-03              OVMax= 5.81D-03

 Cycle   2  Pass 0  IDiag  1:
 E= -115.757184321658     Delta-E=       -0.000152081220 Rises=F Damp=F
 DIIS: error= 2.33D-04 at cycle   2 NSaved=   2.
 NSaved= 2 IEnMin= 2 EnMin= -115.757184321658     IErMin= 2 ErrMin= 2.33D-04
 ErrMax= 2.33D-04  0.00D+00 EMaxC= 1.00D-01 BMatC= 2.34D-06 BMatP= 1.26D-04
 IDIUse=3 WtCom= 9.98D-01 WtEn= 2.33D-03
 Coeff-Com: -0.311D-01 0.103D+01
 Coeff-En:   0.000D+00 0.100D+01
 Coeff:     -0.310D-01 0.103D+01
 Gap=     0.309 Goal=   None    Shift=    0.000
 RMSDP=2.57D-05 MaxDP=2.14D-04 DE=-1.52D-04 OVMax= 5.46D-04

 Cycle   3  Pass 0  IDiag  1:
 E= -115.757185999770     Delta-E=       -0.000001678112 Rises=F Damp=F
 DIIS: error= 9.59D-05 at cycle   3 NSaved=   3.
 NSaved= 3 IEnMin= 3 EnMin= -115.757185999770     IErMin= 3 ErrMin= 9.59D-05
 ErrMax= 9.59D-05  0.00D+00 EMaxC= 1.00D-01 BMatC= 3.14D-07 BMatP= 2.34D-06
 IDIUse=1 WtCom= 1.00D+00 WtEn= 0.00D+00
 Coeff-Com: -0.153D-01 0.270D+00 0.745D+00
 Coeff:     -0.153D-01 0.270D+00 0.745D+00
 Gap=     0.309 Goal=   None    Shift=    0.000
 RMSDP=9.88D-06 MaxDP=1.40D-04 DE=-1.68D-06 OVMax= 2.15D-04

 Initial convergence to 1.0D-05 achieved.  Increase integral accuracy.
 Cycle   4  Pass 1  IDiag  1:
 E= -115.757186495935     Delta-E=       -0.000000496165 Rises=F Damp=F
 DIIS: error= 2.06D-05 at cycle   1 NSaved=   1.
 NSaved= 1 IEnMin= 1 EnMin= -115.757186495935     IErMin= 1 ErrMin= 2.06D-05
 ErrMax= 2.06D-05  0.00D+00 EMaxC= 1.00D-01 BMatC= 2.89D-08 BMatP= 2.89D-08
 IDIUse=1 WtCom= 1.00D+00 WtEn= 0.00D+00
 Coeff-Com:  0.100D+01
 Coeff:      0.100D+01
 Gap=     0.309 Goal=   None    Shift=    0.000
 RMSDP=9.88D-06 MaxDP=1.40D-04 DE=-4.96D-07 OVMax= 9.47D-05

 Cycle   5  Pass 1  IDiag  1:
 E= -115.757186482046     Delta-E=        0.000000013889 Rises=F Damp=F
 DIIS: error= 2.57D-05 at cycle   2 NSaved=   2.
 NSaved= 2 IEnMin= 1 EnMin= -115.757186495935     IErMin= 1 ErrMin= 2.06D-05
 ErrMax= 2.57D-05  0.00D+00 EMaxC= 1.00D-01 BMatC= 4.81D-08 BMatP= 2.89D-08
 IDIUse=1 WtCom= 1.00D+00 WtEn= 0.00D+00
 Coeff-Com:  0.565D+00 0.435D+00
 Coeff:      0.565D+00 0.435D+00
 Gap=     0.309 Goal=   None    Shift=    0.000
 RMSDP=1.94D-06 MaxDP=4.26D-05 DE= 1.39D-08 OVMax= 5.49D-05

 Cycle   6  Pass 1  IDiag  1:
 E= -115.757186521451     Delta-E=       -0.000000039405 Rises=F Damp=F
 DIIS: error= 3.30D-06 at cycle   3 NSaved=   3.
 NSaved= 3 IEnMin= 3 EnMin= -115.757186521451     IErMin= 3 ErrMin= 3.30D-06
 ErrMax= 3.30D-06  0.00D+00 EMaxC= 1.00D-01 BMatC= 5.67D-10 BMatP= 2.89D-08
 IDIUse=1 WtCom= 1.00D+00 WtEn= 0.00D+00
 Coeff-Com:  0.242D+00 0.205D+00 0.553D+00
 Coeff:      0.242D+00 0.205D+00 0.553D+00
 Gap=     0.309 Goal=   None    Shift=    0.000
 RMSDP=2.95D-07 MaxDP=4.32D-06 DE=-3.94D-08 OVMax= 6.49D-06

 Cycle   7  Pass 1  IDiag  1:
 E= -115.757186521824     Delta-E=       -0.000000000373 Rises=F Damp=F
 DIIS: error= 8.50D-07 at cycle   4 NSaved=   4.
 NSaved= 4 IEnMin= 4 EnMin= -115.757186521824     IErMin= 4 ErrMin= 8.50D-07
 ErrMax= 8.50D-07  0.00D+00 EMaxC= 1.00D-01 BMatC= 4.99D-11 BMatP= 5.67D-10
 IDIUse=1 WtCom= 1.00D+00 WtEn= 0.00D+00
 Coeff-Com:  0.231D-01 0.272D-01 0.244D+00 0.705D+00
 Coeff:      0.231D-01 0.272D-01 0.244D+00 0.705D+00
 Gap=     0.309 Goal=   None    Shift=    0.000
 RMSDP=9.65D-08 MaxDP=1.05D-06 DE=-3.73D-10 OVMax= 2.54D-06

 Cycle   8  Pass 1  IDiag  1:
 E= -115.757186521865     Delta-E=       -0.000000000041 Rises=F Damp=F
 DIIS: error= 1.94D-07 at cycle   5 NSaved=   5.
 NSaved= 5 IEnMin= 5 EnMin= -115.757186521865     IErMin= 5 ErrMin= 1.94D-07
 ErrMax= 1.94D-07  0.00D+00 EMaxC= 1.00D-01 BMatC= 1.70D-12 BMatP= 4.99D-11
 IDIUse=1 WtCom= 1.00D+00 WtEn= 0.00D+00
 Coeff-Com: -0.216D-01-0.155D-01 0.138D-01 0.192D+00 0.831D+00
 Coeff:     -0.216D-01-0.155D-01 0.138D-01 0.192D+00 0.831D+00
 Gap=     0.309 Goal=   None    Shift=    0.000
 RMSDP=2.10D-08 MaxDP=3.26D-07 DE=-4.10D-11 OVMax= 7.15D-07

 Cycle   9  Pass 1  IDiag  1:
 E= -115.757186521867     Delta-E=       -0.000000000002 Rises=F Damp=F
 DIIS: error= 3.18D-09 at cycle   6 NSaved=   6.
 NSaved= 6 IEnMin= 6 EnMin= -115.757186521867     IErMin= 6 ErrMin= 3.18D-09
 ErrMax= 3.18D-09  0.00D+00 EMaxC= 1.00D-01 BMatC= 8.23D-16 BMatP= 1.70D-12
 IDIUse=1 WtCom= 1.00D+00 WtEn= 0.00D+00
 Coeff-Com: -0.733D-03-0.538D-03 0.741D-03 0.848D-02 0.293D-01 0.963D+00
 Coeff:     -0.733D-03-0.538D-03 0.741D-03 0.848D-02 0.293D-01 0.963D+00
 Gap=     0.309 Goal=   None    Shift=    0.000
 RMSDP=9.68D-10 MaxDP=1.33D-08 DE=-1.79D-12 OVMax= 3.22D-08

 SCF Done:  E(RB3LYP) =  -115.757186522     A.U. after    9 cycles
            NFock=  9  Conv=0.97D-09     -V/T= 2.0032
 KE= 1.153918178234D+02 PE=-3.523859953281D+02 EE= 8.099052076329D+01
 Leave Link  502 at Tue Aug  6 14:43:31 2019, MaxMem=  1835008000 cpu:        56.9
 (Enter /cm/shared/c3ddb/gaussian/09.d01/g09/l508.exe)
 QCSCF skips out because SCF is already converged.
 Leave Link  508 at Tue Aug  6 14:43:31 2019, MaxMem=  1835008000 cpu:         0.0
 (Enter /cm/shared/c3ddb/gaussian/09.d01/g09/l701.exe)
 Compute integral first derivatives.
 ... and contract with generalized density number  0.
 Leave Link  701 at Tue Aug  6 14:43:32 2019, MaxMem=  1835008000 cpu:         7.2
 (Enter /cm/shared/c3ddb/gaussian/09.d01/g09/l702.exe)
 L702 exits ... SP integral derivatives will be done elsewhere.
 Leave Link  702 at Tue Aug  6 14:43:32 2019, MaxMem=  1835008000 cpu:         0.1
 (Enter /cm/shared/c3ddb/gaussian/09.d01/g09/l703.exe)
 Compute integral first derivatives, UseDBF=F ICtDFT=           0.
 Integral derivatives from FoFJK, PRISM(SPDF).
 Calling FoFJK, ICntrl=      2127 FMM=F ISym2X=0 I1Cent= 0 IOpClX= 0 NMat=1 NMatS=1 NMatT=0.
 FoFJK:  IHMeth= 1 ICntrl=    2127 DoSepK=F KAlg= 0 I1Cent=   0 FoldK=F
 IRaf=         0 NMat=   1 IRICut=       1 DoRegI=T DoRafI=F ISym2E= 0.
 FoFCou: FMM=F IPFlag=           0 FMFlag=      100000 FMFlg1=         800
         NFxFlg=           0 DoJE=F BraDBF=F KetDBF=F FulRan=T
         wScrn=  0.000000 ICntrl=    2127 IOpCl=  0 I1Cent=           0 NGrid=           0
         NMat0=    1 NMatS0=      1 NMatT0=    0 NMatD0=    1 NMtDS0=    0 NMtDT0=    0
 Symmetry not used in FoFCou.
 Leave Link  703 at Tue Aug  6 14:43:35 2019, MaxMem=  1835008000 cpu:        11.7
 (Enter /cm/shared/c3ddb/gaussian/09.d01/g09/l716.exe)
 Dipole        =-3.15299179D-01 5.96486277D-01 4.11953777D-02
 ***** Axes restored to original set *****
 -------------------------------------------------------------------
 Center     Atomic                   Forces (Hartrees/Bohr)
 Number     Number              X              Y              Z
[...]
           A4         108.01637 107.74368 107.45636 107.39690 107.34816
           A5         108.01637 108.25357 108.58080 108.62466 108.68326
           A6         108.58407 108.58795 108.50356 108.45971 108.37014
           A7         107.82652 107.83721 107.85130 107.96136 108.05174
           D1         180.00000-171.99990-163.99986-155.99993-148.00008
           D2         -61.55990 -53.85127 -46.13191 -37.99281 -29.78451
           D3          61.55990  69.23984  76.76236  84.64141  92.48458
                           6         7         8         9        10
     Eigenvalues --  -115.75585-115.75553-115.75535-115.75536-115.75556
           R1           1.42419   1.42494   1.42534   1.42531   1.42485
           R2           1.09306   1.09394   1.09491   1.09588   1.09682
           R3           1.09633   1.09582   1.09546   1.09532   1.09542
           R4           1.09719   1.09648   1.09570   1.09488   1.09407
           R5           0.95914   0.95872   0.95850   0.95852   0.95878
           A1         108.42395 109.01228 109.63903 110.26626 110.85537
           A2         112.49876 112.54876 112.61710 112.69114 112.75292
           A3         111.45055 110.88482 110.22812 109.52000 108.82161
           A4         107.41528 107.59820 107.87308 108.19382 108.50594
           A5         108.64467 108.51303 108.30895 108.07328 107.85069
           A6         108.26544 108.15597 108.05092 107.96274 107.89774
           A7         108.14486 108.22440 108.27161 108.27919 108.23592
           D1        -140.00006-132.00007-124.00009-116.00008-108.00006
           D2         -21.35202 -12.70400  -3.88875   5.00749  13.87682
           D3         100.46626 108.59817 116.85880 125.19866 133.54848
                          11        12        13        14        15
     Eigenvalues --  -115.75591-115.75634-115.75677-115.75712-115.75734
           R1           1.42418   1.42324   1.42220   1.42135   1.42082
           R2           1.09744   1.09831   1.09876   1.09896   1.09892
           R3           1.09589   1.09626   1.09694   1.09764   1.09828
           R4           1.09312   1.09242   1.09180   1.09130   1.09095
           R5           0.95942   0.95977   0.96038   0.96088   0.96118
           A1         111.40287 111.80714 112.13539 112.36813 112.51758
           A2         112.78248 112.77710 112.76682 112.72646 112.65280
           A3         108.11833 107.62247 107.20586 106.93984 106.82522
           A4         108.68525 108.85057 108.91372 108.85965 108.71365
           A5         107.75732 107.69608 107.69288 107.78226 107.93572
           A6         107.91485 107.88376 107.90545 107.94115 107.98300
           A7         108.16798 108.06373 107.96438 107.89010 107.84541
           D1        -100.00012 -92.00010 -84.00008 -76.00006 -68.00011
           D2          22.53645  31.05484  39.38204  47.45905  55.32364
           D3         141.77619 149.92573 158.00250 165.92863 173.72907
                          16        17        18        19        20
     Eigenvalues --  -115.75739-115.75727-115.75700-115.75663-115.75622
           R1           1.42067   1.42092   1.42151   1.42234   1.42330
           R2           1.09868   1.09826   1.09771   1.09710   1.09649
           R3           1.09880   1.09913   1.09922   1.09905   1.09860
           R4           1.09077   1.09077   1.09097   1.09137   1.09197
           R5           0.96126   0.96110   0.96073   0.96023   0.95967
           A1         112.60405 112.64683 112.66401 112.66861 112.66890
           A2         112.54057 112.38202 112.17057 111.89810 111.56168
           A3         106.85217 107.00643 107.27246 107.63349 108.07251
           A4         108.50778 108.27668 108.05382 107.86878 107.74607
           A5         108.11767 108.29339 108.43068 108.50666 108.50887
           A6         108.02465 108.06353 108.09727 108.12810 108.15431
           A7         107.83523 107.86081 107.91938 108.00363 108.10154
           D1         -60.00007 -52.00009 -44.00012 -35.99986 -27.99987
           D2          63.03051  70.63614  78.19572  85.75379  93.34683
           D3        -178.55980-170.89906-163.25088-155.58444-147.87930
                          21        22        23        24        25
     Eigenvalues --  -115.75582-115.75552-115.75535-115.75535-115.75552
           R1           1.42422   1.42495   1.42537   1.42541   1.42505
           R2           1.09595   1.09555   1.09534   1.09533   1.09553
           R3           1.09790   1.09699   1.09595   1.09486   1.09380
           R4           1.09275   1.09367   1.09470   1.09577   1.09679
           R5           0.95914   0.95874   0.95852   0.95851   0.95872
           A1         112.66793 112.66527 112.65939 112.64844 112.63547
           A2         111.16022 110.69834 110.18779 109.64676 109.09563
           A3         108.57007 109.10622 109.65814 110.20363 110.71942
           A4         107.69930 107.73120 107.83065 107.97373 108.12780
           A5         108.44015 108.31620 108.16457 108.01954 107.91332
           A6         108.17795 108.19839 108.21409 108.22194 108.22231
           A7         108.19752 108.27484 108.31903 108.32131 108.28208
           D1         -19.99992 -11.99988  -3.99983   4.00008  12.00010
           D2         100.99457 108.70364 116.46679 124.26475 132.07241
           D3        -140.12792-132.33605-124.52161-116.71134-108.93175
                          26        27        28        29        30
     Eigenvalues --  -115.75582-115.75622-115.75663-115.75700-115.75727
           R1           1.42436   1.42340   1.42255   1.42168   1.42107
           R2           1.09592   1.09649   1.09704   1.09767   1.09814
           R3           1.09285   1.09205   1.09143   1.09104   1.09083
           R4           1.09770   1.09844   1.09886   1.09908   1.09900
           R5           0.95912   0.95959   0.96007   0.96063   0.96095
           A1         112.62368 112.64140 112.64099 112.63533 112.60470
           A2         108.55772 108.09784 107.67145 107.31380 107.06366
           A3         111.18723 111.54170 111.86983 112.15637 112.37534
           A4         108.25912 108.41832 108.42024 108.35423 108.22020
           A5         107.87081 107.83705 107.94606 108.11518 108.32726
           A6         108.21428 108.17450 108.15364 108.11168 108.07581
           A7         108.20978 108.06804 107.92951 107.91335 107.83493
           D1          20.00012  28.00007  36.00014  44.00008  52.00013
           D2         139.86519 147.76663 155.48600 163.16654 170.82167
           D3        -101.20431 -93.43056 -85.81342 -78.24442 -70.66599
                          31        32        33        34        35
     Eigenvalues --  -115.75739-115.75734-115.75712-115.75677-115.75634
           R1           1.42080   1.42092   1.42134   1.42213   1.42304
           R2           1.09858   1.09878   1.09884   1.09862   1.09825
           R3           1.09084   1.09103   1.09140   1.09193   1.09256
           R4           1.09868   1.09822   1.09760   1.09694   1.09630
           R5           0.96114   0.96109   0.96081   0.96038   0.95982
           A1         112.58920 112.48830 112.35602 112.12367 111.80812
           A2         106.90609 106.88226 106.99168 107.24464 107.64442
           A3         112.52631 112.66272 112.73478 112.79228 112.80348
           A4         108.04977 107.87439 107.71284 107.61792 107.59588
           A5         108.54397 108.73845 108.88597 108.94592 108.90786
           A6         108.02904 107.97915 107.93206 107.88980 107.86904
           A7         107.83391 107.84584 107.89074 107.97535 108.06012
           D1          60.00006  68.00007  76.00007  84.00009  92.00011
           D2         178.50257-173.78450-165.98756-158.07629-150.03375
           D3         -63.05622 -55.34169 -47.49106 -39.43516 -31.15101
                          36        37        38        39        40
     Eigenvalues --  -115.75591-115.75556-115.75536-115.75535-115.75553
           R1           1.42403   1.42482   1.42529   1.42534   1.42491
           R2           1.09759   1.09681   1.09588   1.09490   1.09396
           R3           1.09329   1.09406   1.09487   1.09568   1.09648
           R4           1.09578   1.09543   1.09534   1.09548   1.09583
           R5           0.95927   0.95879   0.95853   0.95849   0.95873
           A1         111.37652 110.86196 110.26420 109.64322 109.01161
           A2         108.17711 108.81503 109.51759 110.22136 110.88543
           A3         112.79608 112.75251 112.69263 112.61561 112.54920
           A4         107.68021 107.84524 108.07655 108.31541 108.52090
           A5         108.75701 108.50684 108.19622 107.86839 107.59394
           A6         107.86784 107.90238 107.96021 108.05358 108.15218
           A7         108.15868 108.22571 108.27428 108.26200 108.23547
           D1         100.00011 108.00011 116.00009 124.00008 132.00010
           D2        -141.84926-133.55524-125.19737-116.85241-108.58850
           D3         -22.62066 -13.88247  -5.01010   3.89278  12.70953
                          41        42        43        44        45
     Eigenvalues --  -115.75585-115.75627-115.75670-115.75706-115.75731
           R1           1.42421   1.42327   1.42231   1.42145   1.42084
           R2           1.09306   1.09230   1.09163   1.09116   1.09090
           R3           1.09719   1.09779   1.09836   1.09864   1.09878
           R4           1.09633   1.09691   1.09743   1.09799   1.09841
           R5           0.95914   0.95968   0.96020   0.96072   0.96108
           A1         108.43168 107.90305 107.41945 107.10753 106.91942
           A2         111.44430 111.89710 112.24500 112.44352 112.54097
           A3         112.49519 112.47770 112.48798 112.52139 112.56449
           A4         108.65309 108.68934 108.59576 108.44465 108.21689
           A5         107.40503 107.34325 107.41912 107.57145 107.79951
           A6         108.26960 108.36988 108.49343 108.55930 108.59870
           A7         108.15440 108.05703 107.95429 107.85785 107.80720
           D1         140.00008 147.99998 156.00012 164.00010 172.00008
           D2        -100.45469 -92.47708 -84.69743 -76.96797 -69.31178
           D3          21.36187  29.79127  38.00133  45.99359  53.80941
                          46
     Eigenvalues --  -115.75739
           R1           1.42061
           R2           1.09081
           R3           1.09873
           R4           1.09866
           R5           0.96121
           A1         106.86260
           A2         112.56340
           A3         112.59050
           A4         107.94706
           A5         108.06597
           A6         108.60764
           A7         107.78849
           D1        -179.99986
           D2         -61.66546
           D3          61.50480
 Largest change from initial coordinates is atom    3       1.832 Angstoms.
 Leave Link  103 at Tue Aug  6 15:26:56 2019, MaxMem=  1835008000 cpu:        16.0
 (Enter /cm/shared/c3ddb/gaussian/09.d01/g09/l202.exe)
                          Input orientation:                          
 ---------------------------------------------------------------------
 Center     Atomic      Atomic             Coordinates (Angstroms)
 Number     Number       Type             X           Y           Z
 ---------------------------------------------------------------------
      1          6           0       -0.031028    0.657533    0.036160
      2          8           0        0.007186   -0.749523    0.228146
      3          1           0       -0.888064    1.030459    0.598552
      4          1           0        0.868714    1.159671    0.417647
      5          1           0       -0.167749    0.936125   -1.017763
      6          1           0        0.759040   -1.092565   -0.262742
 ---------------------------------------------------------------------
                    Distance matrix (angstroms):
                    1          2          3          4          5
     1  C    0.000000
     2  O    1.420607   0.000000
     3  H    1.090811   2.026576   0.000000
     4  H    1.098732   2.103132   1.770789   0.000000
     5  H    1.098663   2.103402   1.772068   1.784554   0.000000
     6  H    1.943294   0.961214   2.821703   2.355318   2.354692
                    6
     6  H    0.000000
 Stoichiometry    CH4O
 Framework group  C1[X(CH4O)]
 Deg. of freedom    12
 Full point group                 C1      NOp   1
 RotChk:  IX=3 Diff= 3.63D-15
 Largest Abelian subgroup         C1      NOp   1
 Largest concise Abelian subgroup C1      NOp   1
                         Standard orientation:                         
 ---------------------------------------------------------------------
 Center     Atomic      Atomic             Coordinates (Angstroms)
 Number     Number       Type             X           Y           Z
 ---------------------------------------------------------------------
      1          6           0       -0.663512    0.019577   -0.000145
      2          8           0        0.750056   -0.121671   -0.000216
      3          1           0       -1.082157   -0.987697   -0.002152
      4          1           0       -1.035259    0.538942    0.893877
      5          1           0       -1.035219    0.544805   -0.890667
      6          1           0        1.133257    0.759854    0.001545
 ---------------------------------------------------------------------
 Rotational constants (GHZ):    128.0550421     24.7369154     23.8755851
 Leave Link  202 at Tue Aug  6 15:26:56 2019, MaxMem=  1835008000 cpu:         0.2
 (Enter /cm/shared/c3ddb/gaussian/09.d01/g09/l601.exe)
 Copying SCF densities to generalized density rwf, IOpCl= 0 IROHF=0.

 **********************************************************************

            Population analysis using the SCF density.

 **********************************************************************

 Orbital symmetries:
       Occupied  (A) (A) (A) (A) (A) (A) (A) (A) (A)
       Virtual   (A) (A) (A) (A) (A) (A) (A) (A) (A) (A) (A) (A)
                 (A) (A) (A) (A) (A) (A) (A) (A) (A) (A) (A) (A)
                 (A) (A) (A) (A) (A) (A) (A) (A) (A) (A) (A) (A)
                 (A) (A) (A) (A) (A) (A) (A) (A) (A) (A) (A) (A)
                 (A) (A) (A)
 The electronic state is 1-A.
 Alpha  occ. eigenvalues --  -19.10795 -10.20955  -1.01502  -0.68232  -0.50625
 Alpha  occ. eigenvalues --   -0.43880  -0.42411  -0.33476  -0.27159
 Alpha virt. eigenvalues --    0.03739   0.07164   0.11336   0.11582   0.18085
 Alpha virt. eigenvalues --    0.30473   0.32389   0.39178   0.44917   0.51836
 Alpha virt. eigenvalues --    0.56977   0.57841   0.70605   0.78663   0.81060
 Alpha virt. eigenvalues --    0.86949   1.06985   1.14518   1.32824   1.36863
 Alpha virt. eigenvalues --    1.44760   1.45281   1.47954   1.48269   1.58134
 Alpha virt. eigenvalues --    1.66087   1.76102   1.95348   1.99311   2.09048
 Alpha virt. eigenvalues --    2.15771   2.28200   2.31112   2.39749   2.44887
 Alpha virt. eigenvalues --    2.46009   2.55982   2.76418   2.90572   3.08713
 Alpha virt. eigenvalues --    3.20099   3.28655   3.65377   3.75695   3.88064
 Alpha virt. eigenvalues --    3.92406   4.84158   5.22562   5.62852  23.85285
 Alpha virt. eigenvalues --   49.86955
          Condensed to atoms (all electrons):
               1          2          3          4          5          6
     1  C    4.689178   0.280499   0.399931   0.395633   0.395686  -0.044833
     2  O    0.280499   7.909327  -0.030325  -0.032977  -0.032943   0.312169
     3  H    0.399931  -0.030325   0.582112  -0.035984  -0.035830   0.009694
     4  H    0.395633  -0.032977  -0.035984   0.640890  -0.048364  -0.007120
     5  H    0.395686  -0.032943  -0.035830  -0.048364   0.640585  -0.007134
     6  H   -0.044833   0.312169   0.009694  -0.007120  -0.007134   0.501704
 Mulliken charges:
               1
     1  C   -0.116094
     2  O   -0.405750
     3  H    0.110402
     4  H    0.087922
     5  H    0.088001
     6  H    0.235519
 Sum of Mulliken charges =   0.00000
 Mulliken charges with hydrogens summed into heavy atoms:
               1
     1  C    0.170230
     2  O   -0.170230
 Electronic spatial extent (au):  <R**2>=             84.3683
 Charge=              0.0000 electrons
 Dipole moment (field-independent basis, Debye):
    X=             -0.8000    Y=              1.5144    Z=              0.0030  Tot=              1.7127
 Quadrupole moment (field-independent basis, Debye-Ang):
   XX=            -12.7501   YY=            -12.1569   ZZ=            -13.6693
   XY=              2.2156   XZ=              0.0042   YZ=              0.0009
 Traceless Quadrupole moment (field-independent basis, Debye-Ang):
   XX=              0.1087   YY=              0.7019   ZZ=             -0.8106
   XY=              2.2156   XZ=              0.0042   YZ=              0.0009
 Octapole moment (field-independent basis, Debye-Ang**2):
  XXX=              4.6160  YYY=              0.4359  ZZZ=              0.0045  XYY=              1.9265
  XXY=              2.2040  XXZ=              0.0051  XZZ=              0.6182  YZZ=              0.5835
  YYZ=             -0.0029  XYZ=              0.0049
 Hexadecapole moment (field-independent basis, Debye-Ang**3):
 XXXX=            -61.1693 YYYY=            -20.0740 ZZZZ=            -19.8310 XXXY=              3.6141
 XXXZ=              0.0071 YYYX=              2.8546 YYYZ=              0.0004 ZZZX=             -0.0022
 ZZZY=             -0.0003 XXYY=            -12.4126 XXZZ=            -14.0189 YYZZ=             -6.8077
 XXYZ=              0.0013 YYXZ=              0.0081 ZZXY=             -0.1595
 N-N= 4.025400866670D+01 E-N=-3.524018492542D+02  KE= 1.153928917937D+02
 No NMR shielding tensors so no spin-rotation constants.
 Leave Link  601 at Tue Aug  6 15:26:57 2019, MaxMem=  1835008000 cpu:         4.1
 (Enter /cm/shared/c3ddb/gaussian/09.d01/g09/l9999.exe)

 Test job not archived.
 1\1\GINC-NODE044\Scan\RB3LYP\6-311G(2d,d,p)\C1H4O1\XIAORUI\06-Aug-2019
 \0\\#P opt=(modredundant, calcfc, noeigentest, maxStep=5) scf=(tight, 
 direct) integral=(grid=ultrafine, Acc2E=12) guess=read b3lyp/cbsb7 scf
 =xqc iop(2/9=2000)\\name\\0,1\C,-0.0310282736,0.6575326602,0.036160221
 9\O,0.0071863691,-0.7495229503,0.2281456807\H,-0.8880641356,1.03045880
 98,0.5985516165\H,0.8687143019,1.1596708687,0.4176472324\H,-0.16774903
 19,0.9361246406,-1.0177629012\H,0.7590397701,-1.092565029,-0.262741850
 3\\Version=AS64L-G09RevD.01\State=1-A\HF=-115.7573934,-115.7573073,-11
 5.7570618,-115.7566966,-115.7562694,-115.7558539,-115.755526,-115.7553
 495,-115.7553618,-115.7555618,-115.7559094,-115.7563375,-115.7567654,-
 115.7571177,-115.7573368,-115.7573899,-115.7572718,-115.7570045,-115.7
 566323,-115.7562159,-115.7558231,-115.7555183,-115.7553518,-115.755351
 8,-115.7555183,-115.7558231,-115.7562164,-115.7566326,-115.7570049,-11
 5.7572721,-115.7573901,-115.7573371,-115.7571179,-115.7567656,-115.756
 3378,-115.7559098,-115.7555618,-115.7553618,-115.7553495,-115.755526,-
 115.7558539,-115.7562694,-115.7566964,-115.7570622,-115.7573071,-115.7
 573931\RMSD=5.620e-09,8.177e-10,1.352e-09,3.763e-09,3.765e-09,4.478e-0
 9,4.609e-09,4.715e-09,9.246e-09,2.992e-09,9.940e-09,2.148e-09,2.104e-0
 9,1.942e-09,6.275e-09,1.945e-09,2.017e-09,2.209e-09,2.490e-09,2.594e-0
 9,2.624e-09,2.587e-09,2.518e-09,7.854e-09,2.121e-09,1.504e-09,2.612e-0
 9,3.241e-09,3.583e-09,3.508e-09,4.627e-09,5.104e-09,5.038e-09,5.621e-0
 9,3.317e-09,4.975e-09,4.446e-09,4.738e-09,4.340e-09,7.901e-09,3.099e-0
 9,1.664e-09,1.571e-09,1.319e-09,1.222e-09,1.245e-09\PG=C01 [X(C1H4O1)]
 \\@


 I do not feel obliged to believe that the same God who
 has endowed us with sense, reason, and intellect has
 intended us to forgo their use.
                   --Galileo Galilei
 Job cpu time:       0 days  3 hours 52 minutes 22.8 seconds.
 File lengths (MBytes):  RWF=      7 Int=      0 D2E=      0 Chk=      3 Scr=      1
 Normal termination of Gaussian 09 at Tue Aug  6 15:26:57 2019.
