 Entering Gaussian System, Link 0=g09
 Initial command:
 /cm/shared/c3ddb/gaussian/09.d01/g09/l1.exe "/scratch/users/xiaorui/g09/nBA_comp-11078330/Gau-62321.inp" -scrdir="/scratch/users/xiaorui/g09/nBA_comp-11078330/"
 Entering Link 1 = /cm/shared/c3ddb/gaussian/09.d01/g09/l1.exe PID=     62322.
  
 Copyright (c) 1988,1990,1992,1993,1995,1998,2003,2009,2013,
            Gaussian, Inc.  All Rights Reserved.
  
 This is part of the Gaussian(R) 09 program.  It is based on
 the Gaussian(R) 03 system (copyright 2003, Gaussian, Inc.),
 the Gaussian(R) 98 system (copyright 1998, Gaussian, Inc.),
 the Gaussian(R) 94 system (copyright 1995, Gaussian, Inc.),
 the Gaussian 92(TM) system (copyright 1992, Gaussian, Inc.),
 the Gaussian 90(TM) system (copyright 1990, Gaussian, Inc.),
 the Gaussian 88(TM) system (copyright 1988, Gaussian, Inc.),
 the Gaussian 86(TM) system (copyright 1986, Carnegie Mellon
 University), and the Gaussian 82(TM) system (copyright 1983,
 Carnegie Mellon University). Gaussian is a federally registered
 trademark of Gaussian, Inc.
  
 This software contains proprietary and confidential information,
 including trade secrets, belonging to Gaussian, Inc.
  
 This software is provided under written license and may be
 used, copied, transmitted, or stored only in accord with that
 written license.
  
 The following legend is applicable only to US Government
 contracts under FAR:
  
                    RESTRICTED RIGHTS LEGEND
  
 Use, reproduction and disclosure by the US Government is
 subject to restrictions as set forth in subparagraphs (a)
 and (c) of the Commercial Computer Software - Restricted
 Rights clause in FAR 52.227-19.
  
 Gaussian, Inc.
 340 Quinnipiac St., Bldg. 40, Wallingford CT 06492
  
  
 ---------------------------------------------------------------
 Warning -- This program may not be used in any manner that
 competes with the business of Gaussian, Inc. or will provide
 assistance to any competitor of Gaussian, Inc.  The licensee
 of this program is prohibited from giving any competitor of
 Gaussian, Inc. access to this program.  By using this program,
 the user acknowledges that Gaussian, Inc. is engaged in the
 business of creating and licensing software in the field of
 computational chemistry and represents and warrants to the
 licensee that it is not a competitor of Gaussian, Inc. and that
 it will not use this program in any manner prohibited above.
 ---------------------------------------------------------------
  

 Cite this work as:
 Gaussian 09, Revision D.01,
 M. J. Frisch, G. W. Trucks, H. B. Schlegel, G. E. Scuseria, 
 M. A. Robb, J. R. Cheeseman, G. Scalmani, V. Barone, B. Mennucci, 
 G. A. Petersson, H. Nakatsuji, M. Caricato, X. Li, H. P. Hratchian, 
 A. F. Izmaylov, J. Bloino, G. Zheng, J. L. Sonnenberg, M. Hada, 
 M. Ehara, K. Toyota, R. Fukuda, J. Hasegawa, M. Ishida, T. Nakajima, 
 Y. Honda, O. Kitao, H. Nakai, T. Vreven, J. A. Montgomery, Jr., 
 J. E. Peralta, F. Ogliaro, M. Bearpark, J. J. Heyd, E. Brothers, 
 K. N. Kudin, V. N. Staroverov, T. Keith, R. Kobayashi, J. Normand, 
 K. Raghavachari, A. Rendell, J. C. Burant, S. S. Iyengar, J. Tomasi, 
 M. Cossi, N. Rega, J. M. Millam, M. Klene, J. E. Knox, J. B. Cross, 
 V. Bakken, C. Adamo, J. Jaramillo, R. Gomperts, R. E. Stratmann, 
 O. Yazyev, A. J. Austin, R. Cammi, C. Pomelli, J. W. Ochterski, 
 R. L. Martin, K. Morokuma, V. G. Zakrzewski, G. A. Voth, 
 P. Salvador, J. J. Dannenberg, S. Dapprich, A. D. Daniels, 
 O. Farkas, J. B. Foresman, J. V. Ortiz, J. Cioslowski, 
 and D. J. Fox, Gaussian, Inc., Wallingford CT, 2013.
 
 ******************************************
 Gaussian 09:  AS64L-G09RevD.01 24-Apr-2013
                15-Nov-2019 
 ******************************************
 %chk=check.chk
 %mem=14000mb
 %NProcShared=8
 Will use up to    8 processors via shared memory.
 ----------------------------------------------------------------------
 #P opt=(ts, calcfc, noeigentest, tight) guess=mix cbs-qb3 scf=(tight, 
 direct) integral=(grid=ultrafine, Acc2E=12) scf=xqc iop(2/9=2000)
 ----------------------------------------------------------------------
 1/5=1,7=10,10=4,11=1,14=-1,18=20,26=4,38=1/1,3;
 2/9=2000,12=2,17=6,18=5,40=1/2;
 3/5=4,6=6,7=700,11=2,16=1,25=1,30=1,71=2,74=-5,75=-5,140=1/1,2,3;
 4/13=-1/1;
 5/5=2,8=3,13=1,32=2,38=5,87=12/2,8;
 8/6=4,10=90,11=11,87=12/1;
 11/6=1,8=1,9=11,15=111,16=1,87=12/1,2,10;
 10/6=1,13=1,87=12/2;
 6/7=2,8=2,9=2,10=2,28=1/1;
 7/10=1,18=20,25=1,87=12/1,2,3,16;
 1/5=1,7=10,10=4,11=1,14=-1,18=20,26=4/3(2);
 2/9=2000/2;
 99//99;
 2/9=2000/2;
 3/5=4,6=6,7=700,11=2,16=1,25=1,30=1,71=1,74=-5,75=-5/1,2,3;
 4/5=5,16=3,69=1/1;
 5/5=2,8=3,13=1,32=2,38=5,87=12/2,8;
 7/87=12/1,2,3,16;
 1/5=1,7=10,11=1,14=-1,18=20,26=4/3(-5);
 2/9=2000/2;
 6/7=2,8=2,9=2,10=2,19=2,28=1/1;
 99/9=1/99;
 Leave Link    1 at Fri Nov 15 11:42:07 2019, MaxMem=  1835008000 cpu:         1.3
 (Enter /cm/shared/c3ddb/gaussian/09.d01/g09/l101.exe)
 ---
 nBA
 ---
 Symbolic Z-matrix:
 Charge =  0 Multiplicity = 1
 c
 c                    1    cc2
 c                    2    cc3      1    ccc3
 c                    3    cc4      2    ccc4     1    dih4     0
 o                    4    oc5      3    occ5     2    dih5     0
 c                    5    co6      4    coc6     3    dih6     0
 o                    6    oc7      5    oco7     4    dih7     0
 c                    6    cc8      5    cco8     4    dih8     0
 h                    2    hc9      3    hcc9     4    dih9     0
 h                    2    hc10     3    hcc10    4    dih10    0
 h                    3    hc11     2    hcc11    1    dih11    0
 h                    3    hc12     2    hcc12    1    dih12    0
 h                    4    hc13     3    hcc13    2    dih13    0
 h                    4    hc14     3    hcc14    2    dih14    0
 h                    1    hc15     2    hcc15    3    dih15    0
 h                    1    hc16     2    hcc16    3    dih16    0
 h                    1    hc17     2    hcc17    3    dih17    0
 h                    8    hc18     6    hcc18    5    dih18    0
 h                    8    hc19     6    hcc19    5    dih19    0
 h                    8    hc20     6    hcc20    5    dih20    0
       Variables:
  cc2                   1.5349                   
  cc3                   1.52592                  
  ccc3                113.813                    
  cc4                   1.40409                  
  ccc4                120.195                    
  dih4                -80.344                    
  oc5                   2.01621                  
  occ5                111.043                    
  dih5               -104.248                    
  co6                   1.26365                  
  coc6                115.917                    
  dih6                 -2.58                     
  oc7                   1.27149                  
  oco7                124.091                    
  dih7                 -7.866                    
  cc8                   1.51319                  
  cco8                118.212                    
  dih8                171.498                    
  hc9                   1.09632                  
  hcc9                108.939                    
  dih9                 42.18                     
  hc10                  1.0949                   
  hcc10               109.175                    
  dih10               157.245                    
  hc11                  1.30556                  
  hcc11               106.426                    
  dih11               174.254                    
  hc12                  1.09211                  
  hcc12               115.529                    
  dih12                64.062                    
  hc13                  1.08349                  
  hcc13               121.352                    
  dih13                -5.406                    
  hc14                  1.08167                  
  hcc14               121.017                    
  dih14               154.759                    
  hc15                  1.09439                  
  hcc15               111.157                    
  dih15                60.901                    
  hc16                  1.09401                  
  hcc16               111.333                    
  dih16              -178.797                    
  hc17                  1.09425                  
  hcc17               111.036                    
  dih17               -58.75                     
  hc18                  1.09339                  
  hcc18               108.957                    
  dih18              -109.821                    
  hc19                  1.08932                  
  hcc19               110.609                    
  dih19                10.649                    
  hc20                  1.0917                   
  hcc20               109.469                    
  dih20               132.711                    
 
 Add virtual bond connecting atoms H11        and C3         Dist= 2.47D+00.
 Add virtual bond connecting atoms H11        and O7         Dist= 2.51D+00.
 NAtoms=     20 NQM=       20 NQMF=       0 NMMI=      0 NMMIF=      0
                NMic=       0 NMicF=      0.
                    Isotopes and Nuclear Properties:
 (Nuclear quadrupole moments (NQMom) in fm**2, nuclear magnetic moments (NMagM)
  in nuclear magnetons)

  Atom         1           2           3           4           5           6           7           8           9          10
 IAtWgt=          12          12          12          12          16          12          16          12           1           1
 AtmWgt=  12.0000000  12.0000000  12.0000000  12.0000000  15.9949146  12.0000000  15.9949146  12.0000000   1.0078250   1.0078250
 NucSpn=           0           0           0           0           0           0           0           0           1           1
 AtZEff=   0.0000000   0.0000000   0.0000000   0.0000000   0.0000000   0.0000000   0.0000000   0.0000000   0.0000000   0.0000000
 NQMom=    0.0000000   0.0000000   0.0000000   0.0000000   0.0000000   0.0000000   0.0000000   0.0000000   0.0000000   0.0000000
 NMagM=    0.0000000   0.0000000   0.0000000   0.0000000   0.0000000   0.0000000   0.0000000   0.0000000   2.7928460   2.7928460
 AtZNuc=   6.0000000   6.0000000   6.0000000   6.0000000   8.0000000   6.0000000   8.0000000   6.0000000   1.0000000   1.0000000

  Atom        11          12          13          14          15          16          17          18          19          20
 IAtWgt=           1           1           1           1           1           1           1           1           1           1
 AtmWgt=   1.0078250   1.0078250   1.0078250   1.0078250   1.0078250   1.0078250   1.0078250   1.0078250   1.0078250   1.0078250
 NucSpn=           1           1           1           1           1           1           1           1           1           1
 AtZEff=   0.0000000   0.0000000   0.0000000   0.0000000   0.0000000   0.0000000   0.0000000   0.0000000   0.0000000   0.0000000
 NQMom=    0.0000000   0.0000000   0.0000000   0.0000000   0.0000000   0.0000000   0.0000000   0.0000000   0.0000000   0.0000000
 NMagM=    2.7928460   2.7928460   2.7928460   2.7928460   2.7928460   2.7928460   2.7928460   2.7928460   2.7928460   2.7928460
 AtZNuc=   1.0000000   1.0000000   1.0000000   1.0000000   1.0000000   1.0000000   1.0000000   1.0000000   1.0000000   1.0000000
 Leave Link  101 at Fri Nov 15 11:42:07 2019, MaxMem=  1835008000 cpu:         2.4
 (Enter /cm/shared/c3ddb/gaussian/09.d01/g09/l103.exe)

 GradGradGradGradGradGradGradGradGradGradGradGradGradGradGradGradGradGrad
 Berny optimization.
 Initialization pass.
                           ----------------------------
                           !    Initial Parameters    !
                           ! (Angstroms and Degrees)  !
 --------------------------                            --------------------------
 ! Name  Definition              Value          Derivative Info.                !
 --------------------------------------------------------------------------------
 ! R1    R(1,2)                  1.5349         calculate D2E/DX2 analytically  !
 ! R2    R(1,15)                 1.0944         calculate D2E/DX2 analytically  !
 ! R3    R(1,16)                 1.094          calculate D2E/DX2 analytically  !
 ! R4    R(1,17)                 1.0942         calculate D2E/DX2 analytically  !
 ! R5    R(2,3)                  1.5259         calculate D2E/DX2 analytically  !
 ! R6    R(2,9)                  1.0963         calculate D2E/DX2 analytically  !
 ! R7    R(2,10)                 1.0949         calculate D2E/DX2 analytically  !
 ! R8    R(3,4)                  1.4041         calculate D2E/DX2 analytically  !
 ! R9    R(3,11)                 1.3056         calculate D2E/DX2 analytically  !
 ! R10   R(3,12)                 1.0921         calculate D2E/DX2 analytically  !
 ! R11   R(4,13)                 1.0835         calculate D2E/DX2 analytically  !
 ! R12   R(4,14)                 1.0817         calculate D2E/DX2 analytically  !
 ! R13   R(5,6)                  1.2637         calculate D2E/DX2 analytically  !
 ! R14   R(6,7)                  1.2715         calculate D2E/DX2 analytically  !
 ! R15   R(6,8)                  1.5132         calculate D2E/DX2 analytically  !
 ! R16   R(7,11)                 1.3292         calculate D2E/DX2 analytically  !
 ! R17   R(8,18)                 1.0934         calculate D2E/DX2 analytically  !
 ! R18   R(8,19)                 1.0893         calculate D2E/DX2 analytically  !
 ! R19   R(8,20)                 1.0917         calculate D2E/DX2 analytically  !
 ! A1    A(2,1,15)             111.157          calculate D2E/DX2 analytically  !
 ! A2    A(2,1,16)             111.333          calculate D2E/DX2 analytically  !
 ! A3    A(2,1,17)             111.036          calculate D2E/DX2 analytically  !
 ! A4    A(15,1,16)            107.8789         calculate D2E/DX2 analytically  !
 ! A5    A(15,1,17)            107.5216         calculate D2E/DX2 analytically  !
 ! A6    A(16,1,17)            107.7423         calculate D2E/DX2 analytically  !
 ! A7    A(1,2,3)              113.813          calculate D2E/DX2 analytically  !
 ! A8    A(1,2,9)              109.5245         calculate D2E/DX2 analytically  !
 ! A9    A(1,2,10)             109.3015         calculate D2E/DX2 analytically  !
 ! A10   A(3,2,9)              108.939          calculate D2E/DX2 analytically  !
 ! A11   A(3,2,10)             109.175          calculate D2E/DX2 analytically  !
 ! A12   A(9,2,10)             105.776          calculate D2E/DX2 analytically  !
 ! A13   A(2,3,4)              120.195          calculate D2E/DX2 analytically  !
 ! A14   A(2,3,11)             106.426          calculate D2E/DX2 analytically  !
 ! A15   A(2,3,12)             115.529          calculate D2E/DX2 analytically  !
 ! A16   A(4,3,11)              94.4716         calculate D2E/DX2 analytically  !
 ! A17   A(4,3,12)             114.6742         calculate D2E/DX2 analytically  !
 ! A18   A(11,3,12)            100.1885         calculate D2E/DX2 analytically  !
 ! A19   A(3,4,13)             121.352          calculate D2E/DX2 analytically  !
 ! A20   A(3,4,14)             121.017          calculate D2E/DX2 analytically  !
 ! A21   A(13,4,14)            114.857          calculate D2E/DX2 analytically  !
 ! A22   A(5,6,7)              124.091          calculate D2E/DX2 analytically  !
 ! A23   A(5,6,8)              118.212          calculate D2E/DX2 analytically  !
 ! A24   A(7,6,8)              117.6941         calculate D2E/DX2 analytically  !
 ! A25   A(6,7,11)             103.6845         calculate D2E/DX2 analytically  !
 ! A26   A(6,8,18)             108.957          calculate D2E/DX2 analytically  !
 ! A27   A(6,8,19)             110.609          calculate D2E/DX2 analytically  !
 ! A28   A(6,8,20)             109.469          calculate D2E/DX2 analytically  !
 ! A29   A(18,8,19)            109.5449         calculate D2E/DX2 analytically  !
 ! A30   A(18,8,20)            107.639          calculate D2E/DX2 analytically  !
 ! A31   A(19,8,20)            110.557          calculate D2E/DX2 analytically  !
 ! A32   L(3,11,7,5,-1)        169.6324         calculate D2E/DX2 analytically  !
 ! A33   L(3,11,7,5,-2)        183.7335         calculate D2E/DX2 analytically  !
 ! D1    D(15,1,2,3)            60.901          calculate D2E/DX2 analytically  !
 ! D2    D(15,1,2,9)           -61.3007         calculate D2E/DX2 analytically  !
 ! D3    D(15,1,2,10)         -176.7576         calculate D2E/DX2 analytically  !
 ! D4    D(16,1,2,3)          -178.797          calculate D2E/DX2 analytically  !
 ! D5    D(16,1,2,9)            59.0013         calculate D2E/DX2 analytically  !
 ! D6    D(16,1,2,10)          -56.4556         calculate D2E/DX2 analytically  !
 ! D7    D(17,1,2,3)           -58.75           calculate D2E/DX2 analytically  !
 ! D8    D(17,1,2,9)           179.0483         calculate D2E/DX2 analytically  !
 ! D9    D(17,1,2,10)           63.5914         calculate D2E/DX2 analytically  !
 ! D10   D(1,2,3,4)            -80.344          calculate D2E/DX2 analytically  !
 ! D11   D(1,2,3,11)           174.254          calculate D2E/DX2 analytically  !
 ! D12   D(1,2,3,12)            64.062          calculate D2E/DX2 analytically  !
 ! D13   D(9,2,3,4)             42.18           calculate D2E/DX2 analytically  !
 ! D14   D(9,2,3,11)           -63.222          calculate D2E/DX2 analytically  !
 ! D15   D(9,2,3,12)          -173.414          calculate D2E/DX2 analytically  !
 ! D16   D(10,2,3,4)           157.245          calculate D2E/DX2 analytically  !
 ! D17   D(10,2,3,11)           51.843          calculate D2E/DX2 analytically  !
 ! D18   D(10,2,3,12)          -58.349          calculate D2E/DX2 analytically  !
 ! D19   D(2,3,4,13)            -5.406          calculate D2E/DX2 analytically  !
 ! D20   D(2,3,4,14)           154.759          calculate D2E/DX2 analytically  !
 ! D21   D(11,3,4,13)          106.5362         calculate D2E/DX2 analytically  !
 ! D22   D(11,3,4,14)          -93.2988         calculate D2E/DX2 analytically  !
 ! D23   D(12,3,4,13)         -150.0971         calculate D2E/DX2 analytically  !
 ! D24   D(12,3,4,14)           10.0679         calculate D2E/DX2 analytically  !
 ! D25   D(2,3,7,6)            111.9231         calculate D2E/DX2 analytically  !
 ! D26   D(4,3,7,6)             -9.6376         calculate D2E/DX2 analytically  !
 ! D27   D(12,3,7,6)          -125.0235         calculate D2E/DX2 analytically  !
 ! D28   D(5,6,7,11)             8.4399         calculate D2E/DX2 analytically  !
 ! D29   D(8,6,7,11)          -170.9271         calculate D2E/DX2 analytically  !
 ! D30   D(5,6,8,18)          -109.821          calculate D2E/DX2 analytically  !
 ! D31   D(5,6,8,19)            10.649          calculate D2E/DX2 analytically  !
 ! D32   D(5,6,8,20)           132.711          calculate D2E/DX2 analytically  !
 ! D33   D(7,6,8,18)            69.5842         calculate D2E/DX2 analytically  !
 ! D34   D(7,6,8,19)          -169.9458         calculate D2E/DX2 analytically  !
 ! D35   D(7,6,8,20)           -47.8838         calculate D2E/DX2 analytically  !
 --------------------------------------------------------------------------------
 Trust Radius=3.00D-01 FncErr=1.00D-07 GrdErr=1.00D-06
 Number of steps in this run=     97 maximum allowed number of steps=    120.
 Search for a saddle point of order  1.
 GradGradGradGradGradGradGradGradGradGradGradGradGradGradGradGradGradGrad

 Leave Link  103 at Fri Nov 15 11:42:07 2019, MaxMem=  1835008000 cpu:         0.1
 (Enter /cm/shared/c3ddb/gaussian/09.d01/g09/l202.exe)
                          Input orientation:                          
 ---------------------------------------------------------------------
 Center     Atomic      Atomic             Coordinates (Angstroms)
 Number     Number       Type             X           Y           Z
 ---------------------------------------------------------------------
      1          6           0        0.000000    0.000000    0.000000
      2          6           0        0.000000    0.000000    1.534895
      3          6           0        1.396016    0.000000    2.150990
      4          6           0        2.124262   -1.196385    2.249884
      5          8           0        2.124236   -1.889539    4.143195
      6          6           0        1.535785   -1.166311    4.996119
      7          8           0        1.091171    0.000443    4.755909
      8          6           0        1.332416   -1.723602    6.388173
      9          1           0       -0.550637   -0.874340    1.901298
     10          1           0       -0.552809    0.873062    1.896804
     11          1           0        1.230700    0.125376    3.439958
     12          1           0        2.000651    0.886216    1.946669
     13          1           0        1.684923   -2.148083    1.975656
     14          1           0        3.205163   -1.189263    2.289943
     15          1           0        0.496350   -0.891802   -0.394993
     16          1           0       -1.018831    0.021395   -0.397989
     17          1           0        0.529835    0.873140   -0.392785
     18          1           0        0.268977   -1.930194    6.536212
     19          1           0        1.903901   -2.641409    6.521024
     20          1           0        1.630137   -0.976405    7.126321
 ---------------------------------------------------------------------
                    Distance matrix (angstroms):
                    1          2          3          4          5
     1  C    0.000000
     2  C    1.534895   0.000000
     3  C    2.564297   1.525921   0.000000
     4  C    3.317500   2.540677   1.404087   0.000000
     5  O    5.024819   3.858234   2.840695   2.016207   0.000000
     6  C    5.355382   3.962194   3.078080   2.808739   1.263651
     7  O    4.879480   3.400821   2.622696   2.963079   2.239348
     8  C    6.749436   5.319816   4.574775   4.246223   2.386302
     9  H    2.163932   1.096322   2.148552   2.716673   3.634788
    10  H    2.160023   1.094903   2.150528   3.402057   4.454752
    11  H    3.655633   2.271477   1.305560   1.990423   2.313619
    12  H    2.928737   2.226553   1.092112   2.108186   3.541867
    13  H    3.369932   2.765411   2.174504   1.083489   2.226672
    14  H    4.114761   3.501073   2.169485   1.081666   2.256842
    15  H    1.094392   2.183150   2.843719   3.120616   4.923479
    16  H    1.094015   2.185066   3.511302   4.286404   5.844048
    17  H    1.094248   2.181525   2.825498   3.716024   5.545236
    18  H    6.820562   5.367604   4.921996   4.727914   3.028229
    19  H    7.288733   5.955112   5.131489   4.514342   2.503582
    20  H    7.375308   5.905486   5.075638   4.906342   3.158637
                    6          7          8          9         10
     6  C    0.000000
     7  O    1.271494   0.000000
     8  C    1.513191   2.386382   0.000000
     9  H    3.743837   3.407284   4.939553   0.000000
    10  H    4.257584   3.411542   5.519886   1.747409   0.000000
    11  H    2.045279   1.329212   3.481528   2.557356   2.474119
    12  H    3.705147   3.082788   5.194675   3.100110   2.553981
    13  H    3.179515   3.563498   4.446881   2.574039   3.760449
    14  H    3.179739   3.459097   4.537421   3.788964   4.304660
    15  H    5.497260   5.261341   6.884928   2.523774   3.076981
    16  H    6.085483   5.569130   7.390898   2.511626   2.491704
    17  H    5.849067   5.252214   7.305382   3.079597   2.532654
    18  H    2.135464   2.751880   1.093389   4.823798   5.482489
    19  H    2.153314   3.279564   1.089318   5.521699   6.306373
    20  H    2.140731   2.619842   1.091698   5.662779   5.961010
                   11         12         13         14         15
    11  H    0.000000
    12  H    1.844347   0.000000
    13  H    2.742100   3.050819   0.000000
    14  H    2.636155   2.424108   1.824621   0.000000
    15  H    4.034944   3.302673   2.934438   3.825576   0.000000
    16  H    4.449836   3.919516   4.201322   5.150999   1.769099
    17  H    3.967403   2.763425   4.008932   4.313690   1.765261
    18  H    3.838889   5.656392   4.780278   5.215455   7.012244
    19  H    4.195386   5.777389   4.577302   4.658761   7.271424
    20  H    3.868171   5.516832   5.282536   5.090832   7.606760
                   16         17         18         19         20
    16  H    0.000000
    17  H    1.767445   0.000000
    18  H    7.317807   7.479153   0.000000
    19  H    7.969042   7.876602   1.782985   0.000000
    20  H    8.039147   7.821026   1.763718   1.792644   0.000000
 Stoichiometry    C6H12O2
 Framework group  C1[X(C6H12O2)]
 Deg. of freedom    54
 Full point group                 C1      NOp   1
 Largest Abelian subgroup         C1      NOp   1
 Largest concise Abelian subgroup C1      NOp   1
                         Standard orientation:                         
 ---------------------------------------------------------------------
 Center     Atomic      Atomic             Coordinates (Angstroms)
 Number     Number       Type             X           Y           Z
 ---------------------------------------------------------------------
      1          6           0       -3.501122   -0.182573   -0.383023
      2          6           0       -2.061976   -0.708217   -0.291040
      3          6           0       -1.169412    0.100449    0.645883
      4          6           0       -0.595906    1.305508    0.209551
      5          8           0        1.362669    1.066726   -0.205249
      6          6           0        1.838314   -0.082573    0.017660
      7          8           0        1.204126   -1.014559    0.605797
      8          6           0        3.245089   -0.378505   -0.454733
      9          1           0       -1.611328   -0.719185   -1.290398
     10          1           0       -2.078314   -1.751873    0.039608
     11          1           0       -0.031311   -0.535813    0.712098
     12          1           0       -1.459051    0.088333    1.698817
     13          1           0       -0.700354    1.640938   -0.815401
     14          1           0       -0.316409    2.077073    0.914227
     15          1           0       -3.523582    0.842250   -0.766334
     16          1           0       -4.109764   -0.803078   -1.047401
     17          1           0       -3.980882   -0.177055    0.600430
     18          1           0        3.198666   -1.083855   -1.288894
     19          1           0        3.741373    0.535798   -0.777791
     20          1           0        3.806674   -0.855398    0.350872
 ---------------------------------------------------------------------
 Rotational constants (GHZ):      4.7486668      0.9012739      0.8277695
 Leave Link  202 at Fri Nov 15 11:42:08 2019, MaxMem=  1835008000 cpu:         0.5
 (Enter /cm/shared/c3ddb/gaussian/09.d01/g09/l301.exe)
 Standard basis: 6-311G(2d,d,p) (5D, 7F)
 Ernie: Thresh=  0.10000D-02 Tol=  0.10000D-05 Strict=F.
 There are   224 symmetry adapted cartesian basis functions of A   symmetry.
 There are   216 symmetry adapted basis functions of A   symmetry.
   216 basis functions,   352 primitive gaussians,   224 cartesian basis functions
    32 alpha electrons       32 beta electrons
       nuclear repulsion energy       382.5103721407 Hartrees.
 IExCor=  402 DFT=T Ex+Corr=B3LYP ExCW=0 ScaHFX=  0.200000
 ScaDFX=  0.800000  0.720000  1.000000  0.810000 ScalE2=  1.000000  1.000000
 IRadAn=      5 IRanWt=     -1 IRanGd=            0 ICorTp=0 IEmpDi=  4
 NAtoms=   20 NActive=   20 NUniq=   20 SFac= 1.00D+00 NAtFMM=   60 NAOKFM=F Big=F
 Integral buffers will be    131072 words long.
 Raffenetti 2 integral format.
 Two-electron integral symmetry is turned on.
 Leave Link  301 at Fri Nov 15 11:42:08 2019, MaxMem=  1835008000 cpu:         0.3
 (Enter /cm/shared/c3ddb/gaussian/09.d01/g09/l302.exe)
 NPDir=0 NMtPBC=     1 NCelOv=     1 NCel=       1 NClECP=     1 NCelD=      1
         NCelK=      1 NCelE2=     1 NClLst=     1 CellRange=     0.0.
 One-electron integrals computed using PRISM.
 NBasis=   216 RedAO= T EigKep=  1.66D-03  NBF=   216
 NBsUse=   216 1.00D-06 EigRej= -1.00D+00 NBFU=   216
 Precomputing XC quadrature grid using
 IXCGrd= 4 IRadAn=           5 IRanWt=          -1 IRanGd=           0 AccXCQ= 0.00D+00.
 Generated NRdTot=       0 NPtTot=           0 NUsed=           0 NTot=          32
 NSgBfM=   224   224   224   224   224 MxSgAt=    20 MxSgA2=    20.
 Leave Link  302 at Fri Nov 15 11:42:09 2019, MaxMem=  1835008000 cpu:         9.7
 (Enter /cm/shared/c3ddb/gaussian/09.d01/g09/l303.exe)
 DipDrv:  MaxL=1.
 Leave Link  303 at Fri Nov 15 11:42:10 2019, MaxMem=  1835008000 cpu:         1.5
 (Enter /cm/shared/c3ddb/gaussian/09.d01/g09/l401.exe)
 ExpMin= 1.03D-01 ExpMax= 8.59D+03 ExpMxC= 1.30D+03 IAcc=3 IRadAn=         5 AccDes= 0.00D+00
 Harris functional with IExCor=  402 and IRadAn=       5 diagonalized for initial guess.
 HarFok:  IExCor=  402 AccDes= 0.00D+00 IRadAn=         5 IDoV= 1 UseB2=F ITyADJ=14
 ICtDFT=  3500011 ScaDFX=  1.000000  1.000000  1.000000  1.000000
 FoFCou: FMM=F IPFlag=           0 FMFlag=      100000 FMFlg1=           0
         NFxFlg=           0 DoJE=T BraDBF=F KetDBF=T FulRan=T
         wScrn=  0.000000 ICntrl=     500 IOpCl=  0 I1Cent=   200000004 NGrid=           0
         NMat0=    1 NMatS0=      1 NMatT0=    0 NMatD0=    1 NMtDS0=    0 NMtDT0=    0
 Petite list used in FoFCou.
 Harris En= -386.456210510348    
 JPrj=0 DoOrth=F DoCkMO=T.
 Mixing orbitals, IMix= 1 IMixAn=  0 NRI=1 NE=   32 Coef=  7.07106781D-01  7.07106781D-01
 Leave Link  401 at Fri Nov 15 11:42:14 2019, MaxMem=  1835008000 cpu:        22.4
 (Enter /cm/shared/c3ddb/gaussian/09.d01/g09/l502.exe)
 Closed shell SCF:
 Using DIIS extrapolation, IDIIS=  1040.
 Integral symmetry usage will be decided dynamically.
 Keep R1 ints in memory in canonical form, NReq=280489916.
 IVT=      159950 IEndB=      159950 NGot=  1835008000 MDV=  1560213285
 LenX=  1560213285 LenY=  1560162668
 Requested convergence on RMS density matrix=1.00D-08 within  64 cycles.
 Requested convergence on MAX density matrix=1.00D-06.
 Requested convergence on             energy=1.00D-06.
 No special actions if energy rises.
 FoFCou: FMM=F IPFlag=           0 FMFlag=           0 FMFlg1=           0
         NFxFlg=           0 DoJE=F BraDBF=F KetDBF=F FulRan=T
         wScrn=  0.000000 ICntrl=     600 IOpCl=  0 I1Cent=           0 NGrid=           0
         NMat0=    1 NMatS0=  23436 NMatT0=    0 NMatD0=    1 NMtDS0=    0 NMtDT0=    0
 Symmetry not used in FoFCou.
 Integral accuracy reduced to 1.0D-05 until final iterations.

 Cycle   1  Pass 0  IDiag  1:
 E= -385.774287573258    
 DIIS: error= 4.61D-02 at cycle   1 NSaved=   1.
 NSaved= 1 IEnMin= 1 EnMin= -385.774287573258     IErMin= 1 ErrMin= 4.61D-02
 ErrMax= 4.61D-02  0.00D+00 EMaxC= 1.00D-01 BMatC= 4.83D-01 BMatP= 4.83D-01
 IDIUse=3 WtCom= 5.39D-01 WtEn= 4.61D-01
 Coeff-Com:  0.100D+01
 Coeff-En:   0.100D+01
 Coeff:      0.100D+01
 Gap=    -0.146 Goal=   None    Shift=    0.000
 GapD=   -0.146 DampG=0.250 DampE=0.500 DampFc=0.2500 IDamp=-1.
 Damping current iteration by 2.50D-01
 RMSDP=7.66D-03 MaxDP=2.70D-01              OVMax= 5.21D-01

 Cycle   2  Pass 0  IDiag  1:
 E= -385.970819277248     Delta-E=       -0.196531703990 Rises=F Damp=T
 DIIS: error= 1.63D-02 at cycle   2 NSaved=   2.
 NSaved= 2 IEnMin= 2 EnMin= -385.970819277248     IErMin= 2 ErrMin= 1.63D-02
 ErrMax= 1.63D-02  0.00D+00 EMaxC= 1.00D-01 BMatC= 8.89D-02 BMatP= 4.83D-01
 IDIUse=3 WtCom= 8.37D-01 WtEn= 1.63D-01
 Coeff-Com: -0.303D+00 0.130D+01
 Coeff-En:   0.000D+00 0.100D+01
 Coeff:     -0.254D+00 0.125D+01
 Gap=     0.328 Goal=   None    Shift=    0.000
 RMSDP=3.06D-03 MaxDP=7.68D-02 DE=-1.97D-01 OVMax= 3.75D-01

 Cycle   3  Pass 0  IDiag  1:
 E= -386.269527599948     Delta-E=       -0.298708322701 Rises=F Damp=F
 DIIS: error= 2.80D-02 at cycle   3 NSaved=   3.
 NSaved= 3 IEnMin= 3 EnMin= -386.269527599948     IErMin= 2 ErrMin= 1.63D-02
 ErrMax= 2.80D-02  0.00D+00 EMaxC= 1.00D-01 BMatC= 1.15D-01 BMatP= 8.89D-02
 IDIUse=2 WtCom= 0.00D+00 WtEn= 1.00D+00
 Coeff-En:   0.000D+00 0.000D+00 0.100D+01
 Coeff:      0.000D+00 0.000D+00 0.100D+01
 Gap=     0.190 Goal=   None    Shift=    0.000
 RMSDP=3.09D-03 MaxDP=8.96D-02 DE=-2.99D-01 OVMax= 3.45D-01

 Cycle   4  Pass 0  IDiag  1:
 E= -385.851603613865     Delta-E=        0.417923986084 Rises=F Damp=F
 DIIS: error= 8.37D-02 at cycle   4 NSaved=   4.
 NSaved= 4 IEnMin= 3 EnMin= -386.269527599948     IErMin= 2 ErrMin= 1.63D-02
 ErrMax= 8.37D-02  0.00D+00 EMaxC= 1.00D-01 BMatC= 6.56D-01 BMatP= 8.89D-02
 IDIUse=2 WtCom= 0.00D+00 WtEn= 1.00D+00
 Coeff-En:   0.000D+00 0.000D+00 0.796D+00 0.204D+00
 Coeff:      0.000D+00 0.000D+00 0.796D+00 0.204D+00
 Gap=     0.171 Goal=   None    Shift=    0.000
 RMSDP=1.83D-03 MaxDP=5.42D-02 DE= 4.18D-01 OVMax= 1.99D-01

 Cycle   5  Pass 0  IDiag  1:
 E= -386.337558193768     Delta-E=       -0.485954579903 Rises=F Damp=F
 DIIS: error= 1.33D-02 at cycle   5 NSaved=   5.
 NSaved= 5 IEnMin= 5 EnMin= -386.337558193768     IErMin= 5 ErrMin= 1.33D-02
 ErrMax= 1.33D-02  0.00D+00 EMaxC= 1.00D-01 BMatC= 3.61D-02 BMatP= 8.89D-02
 IDIUse=3 WtCom= 8.67D-01 WtEn= 1.33D-01
 Coeff-Com: -0.380D-01 0.605D-01 0.381D+00 0.260D-01 0.571D+00
 Coeff-En:   0.000D+00 0.000D+00 0.256D+00 0.000D+00 0.744D+00
 Coeff:     -0.330D-01 0.525D-01 0.364D+00 0.226D-01 0.594D+00
 Gap=     0.182 Goal=   None    Shift=    0.000
 RMSDP=6.01D-04 MaxDP=2.35D-02 DE=-4.86D-01 OVMax= 4.01D-02

 Cycle   6  Pass 0  IDiag  1:
 E= -386.366667287084     Delta-E=       -0.029109093316 Rises=F Damp=F
 DIIS: error= 2.33D-03 at cycle   6 NSaved=   6.
 NSaved= 6 IEnMin= 6 EnMin= -386.366667287084     IErMin= 6 ErrMin= 2.33D-03
 ErrMax= 2.33D-03  0.00D+00 EMaxC= 1.00D-01 BMatC= 1.39D-03 BMatP= 3.61D-02
 IDIUse=3 WtCom= 9.77D-01 WtEn= 2.33D-02
 Coeff-Com: -0.204D-01 0.127D-01 0.150D+00-0.161D-01 0.371D+00 0.503D+00
 Coeff-En:   0.000D+00 0.000D+00 0.000D+00 0.000D+00 0.000D+00 0.100D+01
 Coeff:     -0.200D-01 0.124D-01 0.146D+00-0.158D-01 0.362D+00 0.515D+00
 Gap=     0.182 Goal=   None    Shift=    0.000
 RMSDP=1.30D-04 MaxDP=5.63D-03 DE=-2.91D-02 OVMax= 9.19D-03

 Cycle   7  Pass 0  IDiag  1:
 E= -386.367763431103     Delta-E=       -0.001096144019 Rises=F Damp=F
 DIIS: error= 1.09D-03 at cycle   7 NSaved=   7.
 NSaved= 7 IEnMin= 7 EnMin= -386.367763431103     IErMin= 7 ErrMin= 1.09D-03
 ErrMax= 1.09D-03  0.00D+00 EMaxC= 1.00D-01 BMatC= 9.98D-05 BMatP= 1.39D-03
 IDIUse=3 WtCom= 9.89D-01 WtEn= 1.09D-02
 Coeff-Com: -0.666D-03-0.587D-02 0.325D-01-0.126D-01 0.114D+00 0.229D+00
 Coeff-Com:  0.643D+00
 Coeff-En:   0.000D+00 0.000D+00 0.000D+00 0.000D+00 0.000D+00 0.000D+00
 Coeff-En:   0.100D+01
 Coeff:     -0.658D-03-0.580D-02 0.322D-01-0.125D-01 0.113D+00 0.227D+00
 Coeff:      0.647D+00
 Gap=     0.182 Goal=   None    Shift=    0.000
 RMSDP=3.77D-05 MaxDP=1.15D-03 DE=-1.10D-03 OVMax= 3.04D-03

 Cycle   8  Pass 0  IDiag  1:
 E= -386.367833815054     Delta-E=       -0.000070383951 Rises=F Damp=F
 DIIS: error= 4.35D-04 at cycle   8 NSaved=   8.
 NSaved= 8 IEnMin= 8 EnMin= -386.367833815054     IErMin= 8 ErrMin= 4.35D-04
 ErrMax= 4.35D-04  0.00D+00 EMaxC= 1.00D-01 BMatC= 2.02D-05 BMatP= 9.98D-05
 IDIUse=3 WtCom= 9.96D-01 WtEn= 4.35D-03
 Coeff-Com:  0.451D-02-0.689D-02 0.400D-02-0.369D-02 0.168D-01 0.435D-01
 Coeff-Com:  0.350D+00 0.592D+00
 Coeff-En:   0.000D+00 0.000D+00 0.000D+00 0.000D+00 0.000D+00 0.000D+00
 Coeff-En:   0.254D-02 0.997D+00
 Coeff:      0.449D-02-0.686D-02 0.399D-02-0.367D-02 0.167D-01 0.434D-01
 Coeff:      0.348D+00 0.594D+00
 Gap=     0.182 Goal=   None    Shift=    0.000
 RMSDP=1.62D-05 MaxDP=6.58D-04 DE=-7.04D-05 OVMax= 1.74D-03

 Cycle   9  Pass 0  IDiag  1:
 E= -386.367848365143     Delta-E=       -0.000014550089 Rises=F Damp=F
 DIIS: error= 1.82D-04 at cycle   9 NSaved=   9.
 NSaved= 9 IEnMin= 9 EnMin= -386.367848365143     IErMin= 9 ErrMin= 1.82D-04
 ErrMax= 1.82D-04  0.00D+00 EMaxC= 1.00D-01 BMatC= 3.12D-06 BMatP= 2.02D-05
 IDIUse=3 WtCom= 9.98D-01 WtEn= 1.82D-03
 Coeff-Com:  0.335D-02-0.597D-02-0.101D-02-0.106D-02-0.176D-03-0.367D-02
 Coeff-Com:  0.821D-01 0.277D+00 0.649D+00
 Coeff-En:   0.000D+00 0.000D+00 0.000D+00 0.000D+00 0.000D+00 0.000D+00
 Coeff-En:   0.000D+00 0.000D+00 0.100D+01
 Coeff:      0.334D-02-0.596D-02-0.101D-02-0.106D-02-0.176D-03-0.366D-02
 Coeff:      0.820D-01 0.277D+00 0.650D+00
 Gap=     0.182 Goal=   None    Shift=    0.000
 RMSDP=7.65D-06 MaxDP=2.43D-04 DE=-1.46D-05 OVMax= 6.04D-04

 Initial convergence to 1.0D-05 achieved.  Increase integral accuracy.
 Cycle  10  Pass 1  IDiag  1:
 E= -386.367844420722     Delta-E=        0.000003944421 Rises=F Damp=F
 DIIS: error= 3.63D-05 at cycle   1 NSaved=   1.
 NSaved= 1 IEnMin= 1 EnMin= -386.367844420722     IErMin= 1 ErrMin= 3.63D-05
 ErrMax= 3.63D-05  0.00D+00 EMaxC= 1.00D-01 BMatC= 4.42D-07 BMatP= 4.42D-07
 IDIUse=1 WtCom= 1.00D+00 WtEn= 0.00D+00
 Coeff-Com:  0.100D+01
 Coeff:      0.100D+01
 Gap=     0.182 Goal=   None    Shift=    0.000
 RMSDP=7.65D-06 MaxDP=2.43D-04 DE= 3.94D-06 OVMax= 5.99D-04

 Cycle  11  Pass 1  IDiag  1:
 E= -386.367843630479     Delta-E=        0.000000790243 Rises=F Damp=F
 DIIS: error= 6.81D-05 at cycle   2 NSaved=   2.
 NSaved= 2 IEnMin= 1 EnMin= -386.367844420722     IErMin= 1 ErrMin= 3.63D-05
 ErrMax= 6.81D-05  0.00D+00 EMaxC= 1.00D-01 BMatC= 1.41D-06 BMatP= 4.42D-07
 IDIUse=1 WtCom= 1.00D+00 WtEn= 0.00D+00
 Coeff-Com:  0.643D+00 0.357D+00
 Coeff:      0.643D+00 0.357D+00
 Gap=     0.182 Goal=   None    Shift=    0.000
 RMSDP=3.59D-06 MaxDP=1.42D-04 DE= 7.90D-07 OVMax= 4.00D-04

 Cycle  12  Pass 1  IDiag  1:
 E= -386.367844837931     Delta-E=       -0.000001207451 Rises=F Damp=F
 DIIS: error= 8.14D-06 at cycle   3 NSaved=   3.
 NSaved= 3 IEnMin= 3 EnMin= -386.367844837931     IErMin= 3 ErrMin= 8.14D-06
 ErrMax= 8.14D-06  0.00D+00 EMaxC= 1.00D-01 BMatC= 1.30D-08 BMatP= 4.42D-07
 IDIUse=1 WtCom= 1.00D+00 WtEn= 0.00D+00
 Coeff-Com:  0.347D+00 0.198D+00 0.455D+00
 Coeff:      0.347D+00 0.198D+00 0.455D+00
 Gap=     0.182 Goal=   None    Shift=    0.000
 RMSDP=4.42D-07 MaxDP=1.15D-05 DE=-1.21D-06 OVMax= 3.84D-05

 Cycle  13  Pass 1  IDiag  1:
 E= -386.367844846841     Delta-E=       -0.000000008911 Rises=F Damp=F
 DIIS: error= 4.37D-06 at cycle   4 NSaved=   4.
 NSaved= 4 IEnMin= 4 EnMin= -386.367844846841     IErMin= 4 ErrMin= 4.37D-06
 ErrMax= 4.37D-06  0.00D+00 EMaxC= 1.00D-01 BMatC= 2.35D-09 BMatP= 1.30D-08
 IDIUse=1 WtCom= 1.00D+00 WtEn= 0.00D+00
 Coeff-Com:  0.883D-01 0.475D-01 0.286D+00 0.579D+00
 Coeff:      0.883D-01 0.475D-01 0.286D+00 0.579D+00
 Gap=     0.182 Goal=   None    Shift=    0.000
 RMSDP=2.88D-07 MaxDP=6.03D-06 DE=-8.91D-09 OVMax= 4.29D-05

 Cycle  14  Pass 1  IDiag  1:
 E= -386.367844848251     Delta-E=       -0.000000001409 Rises=F Damp=F
 DIIS: error= 3.97D-06 at cycle   5 NSaved=   5.
 NSaved= 5 IEnMin= 5 EnMin= -386.367844848251     IErMin= 5 ErrMin= 3.97D-06
 ErrMax= 3.97D-06  0.00D+00 EMaxC= 1.00D-01 BMatC= 1.11D-09 BMatP= 2.35D-09
 IDIUse=1 WtCom= 1.00D+00 WtEn= 0.00D+00
 Coeff-Com: -0.123D-01-0.102D-01 0.101D+00 0.463D+00 0.459D+00
 Coeff:     -0.123D-01-0.102D-01 0.101D+00 0.463D+00 0.459D+00
 Gap=     0.182 Goal=   None    Shift=    0.000
 RMSDP=1.03D-07 MaxDP=3.02D-06 DE=-1.41D-09 OVMax= 1.21D-05

 Cycle  15  Pass 1  IDiag  1:
 E= -386.367844849138     Delta-E=       -0.000000000887 Rises=F Damp=F
 DIIS: error= 6.04D-07 at cycle   6 NSaved=   6.
 NSaved= 6 IEnMin= 6 EnMin= -386.367844849138     IErMin= 6 ErrMin= 6.04D-07
 ErrMax= 6.04D-07  0.00D+00 EMaxC= 1.00D-01 BMatC= 6.89D-11 BMatP= 1.11D-09
 IDIUse=1 WtCom= 1.00D+00 WtEn= 0.00D+00
 Coeff-Com: -0.246D-01-0.157D-01 0.501D-02 0.209D+00 0.241D+00 0.585D+00
 Coeff:     -0.246D-01-0.157D-01 0.501D-02 0.209D+00 0.241D+00 0.585D+00
 Gap=     0.182 Goal=   None    Shift=    0.000
 RMSDP=3.67D-08 MaxDP=9.47D-07 DE=-8.87D-10 OVMax= 2.24D-06

 Cycle  16  Pass 1  IDiag  1:
 E= -386.367844849198     Delta-E=       -0.000000000060 Rises=F Damp=F
 DIIS: error= 2.61D-07 at cycle   7 NSaved=   7.
 NSaved= 7 IEnMin= 7 EnMin= -386.367844849198     IErMin= 7 ErrMin= 2.61D-07
 ErrMax= 2.61D-07  0.00D+00 EMaxC= 1.00D-01 BMatC= 6.07D-12 BMatP= 6.89D-11
 IDIUse=1 WtCom= 1.00D+00 WtEn= 0.00D+00
 Coeff-Com: -0.826D-02-0.493D-02-0.125D-01 0.428D-01 0.349D-01 0.241D+00
 Coeff-Com:  0.707D+00
 Coeff:     -0.826D-02-0.493D-02-0.125D-01 0.428D-01 0.349D-01 0.241D+00
 Coeff:      0.707D+00
 Gap=     0.182 Goal=   None    Shift=    0.000
 RMSDP=1.05D-08 MaxDP=2.92D-07 DE=-6.01D-11 OVMax= 1.12D-06

 Cycle  17  Pass 1  IDiag  1:
 E= -386.367844849203     Delta-E=       -0.000000000004 Rises=F Damp=F
 DIIS: error= 3.61D-08 at cycle   8 NSaved=   8.
 NSaved= 8 IEnMin= 8 EnMin= -386.367844849203     IErMin= 8 ErrMin= 3.61D-08
 ErrMax= 3.61D-08  0.00D+00 EMaxC= 1.00D-01 BMatC= 4.31D-13 BMatP= 6.07D-12
 IDIUse=1 WtCom= 1.00D+00 WtEn= 0.00D+00
 Coeff-Com: -0.107D-02-0.593D-03-0.549D-02 0.778D-03-0.110D-01 0.385D-01
 Coeff-Com:  0.276D+00 0.703D+00
 Coeff:     -0.107D-02-0.593D-03-0.549D-02 0.778D-03-0.110D-01 0.385D-01
 Coeff:      0.276D+00 0.703D+00
 Gap=     0.182 Goal=   None    Shift=    0.000
 RMSDP=2.64D-09 MaxDP=1.04D-07 DE=-4.32D-12 OVMax= 1.68D-07

 SCF Done:  E(RB3LYP) =  -386.367844849     A.U. after   17 cycles
            NFock= 17  Conv=0.26D-08     -V/T= 2.0040
 KE= 3.848399054537D+02 PE=-1.667531641313D+03 EE= 5.138135188696D+02
 Leave Link  502 at Fri Nov 15 11:43:36 2019, MaxMem=  1835008000 cpu:       404.3
 (Enter /cm/shared/c3ddb/gaussian/09.d01/g09/l508.exe)
 QCSCF skips out because SCF is already converged.
 Leave Link  508 at Fri Nov 15 11:43:36 2019, MaxMem=  1835008000 cpu:         0.0
 (Enter /cm/shared/c3ddb/gaussian/09.d01/g09/l801.exe)
 DoSCS=F DFT=T ScalE2(SS,OS)=  1.000000  1.000000
 Range of M.O.s used for correlation:     1   216
 NBasis=   216 NAE=    32 NBE=    32 NFC=     0 NFV=     0
 NROrb=    216 NOA=    32 NOB=    32 NVA=   184 NVB=   184
 Leave Link  801 at Fri Nov 15 11:43:36 2019, MaxMem=  1835008000 cpu:         0.3
 (Enter /cm/shared/c3ddb/gaussian/09.d01/g09/l1101.exe)
 Using compressed storage, NAtomX=    20.
 Will process     21 centers per pass.
 Leave Link 1101 at Fri Nov 15 11:43:38 2019, MaxMem=  1835008000 cpu:        15.3
 (Enter /cm/shared/c3ddb/gaussian/09.d01/g09/l1102.exe)
 Symmetrizing basis deriv contribution to polar:
 IMax=3 JMax=2 DiffMx= 0.00D+00
 Leave Link 1102 at Fri Nov 15 11:43:39 2019, MaxMem=  1835008000 cpu:         1.0
 (Enter /cm/shared/c3ddb/gaussian/09.d01/g09/l1110.exe)
 Forming Gx(P) for the SCF density, NAtomX=    20.
 Integral derivatives from FoFJK, PRISM(SPDF).
 Do as many integral derivatives as possible in FoFJK.
 G2DrvN: MDV=    1835007736.
 G2DrvN: will do    21 centers at a time, making    1 passes.
 Calling FoFCou, ICntrl=  3107 FMM=F I1Cent=   0 AccDes= 1.00D-12.
 FoFJK:  IHMeth= 1 ICntrl=    3107 DoSepK=F KAlg= 0 I1Cent=   0 FoldK=F
 IRaf=         0 NMat=   1 IRICut=       1 DoRegI=T DoRafI=F ISym2E= 0.
 FoFCou: FMM=F IPFlag=           0 FMFlag=      100000 FMFlg1=           0
         NFxFlg=           0 DoJE=F BraDBF=F KetDBF=F FulRan=T
         wScrn=  0.000000 ICntrl=    3107 IOpCl=  0 I1Cent=           0 NGrid=           0
         NMat0=    1 NMatS0=      1 NMatT0=    0 NMatD0=    1 NMtDS0=    0 NMtDT0=    0
 Symmetry not used in FoFCou.
 End of G2Drv F.D. properties file   721 does not exist.
 End of G2Drv F.D. properties file   722 does not exist.
 End of G2Drv F.D. properties file   788 does not exist.
 Leave Link 1110 at Fri Nov 15 11:46:19 2019, MaxMem=  1835008000 cpu:       960.2
 (Enter /cm/shared/c3ddb/gaussian/09.d01/g09/l1002.exe)
 Minotr:  Closed shell wavefunction.
          IDoAtm=11111111111111111111
          Direct CPHF calculation.
          Differentiating once with respect to nuclear coordinates.
          Requested convergence is 1.0D-08 RMS, and 1.0D-07 maximum.
          Secondary convergence is 1.0D-12 RMS, and 1.0D-12 maximum.
          NewPWx=T KeepS1=F KeepF1=F KeepIn=T MapXYZ=F SortEE=F KeepMc=T.
          MDV=    1835007580 using IRadAn=       1.
 Generate precomputed XC quadrature information.
 Keep R1 ints in memory in canonical form, NReq=280338259.
 FoFCou: FMM=F IPFlag=           0 FMFlag=           0 FMFlg1=           0
         NFxFlg=           0 DoJE=F BraDBF=F KetDBF=F FulRan=T
         wScrn=  0.000000 ICntrl=     600 IOpCl=  0 I1Cent=           0 NGrid=           0
         NMat0=    1 NMatS0=  23436 NMatT0=    0 NMatD0=    1 NMtDS0=    0 NMtDT0=    0
 Symmetry not used in FoFCou.
          Solving linear equations simultaneously, MaxMat=       0.
          There are    63 degrees of freedom in the 1st order CPHF.  IDoFFX=6 NUNeed=     0.
     57 vectors produced by pass  0 Test12= 9.35D-15 1.59D-09 XBig12= 1.05D-01 1.68D-01.
 AX will form    57 AO Fock derivatives at one time.
     57 vectors produced by pass  1 Test12= 9.35D-15 1.59D-09 XBig12= 1.22D-02 2.75D-02.
     57 vectors produced by pass  2 Test12= 9.35D-15 1.59D-09 XBig12= 1.17D-04 2.30D-03.
     57 vectors produced by pass  3 Test12= 9.35D-15 1.59D-09 XBig12= 3.21D-07 9.90D-05.
     57 vectors produced by pass  4 Test12= 9.35D-15 1.59D-09 XBig12= 5.11D-10 2.86D-06.
     36 vectors produced by pass  5 Test12= 9.35D-15 1.59D-09 XBig12= 4.79D-13 8.83D-08.
      6 vectors produced by pass  6 Test12= 9.35D-15 1.59D-09 XBig12= 5.01D-16 3.80D-09.
 InvSVY:  IOpt=1 It=  1 EMax= 5.00D-16
 Solved reduced A of dimension   327 with    63 vectors.
 End of Minotr F.D. properties file   721 does not exist.
 End of Minotr F.D. properties file   722 does not exist.
 End of Minotr F.D. properties file   788 does not exist.
 Leave Link 1002 at Fri Nov 15 11:49:15 2019, MaxMem=  1835008000 cpu:      1055.5
 (Enter /cm/shared/c3ddb/gaussian/09.d01/g09/l601.exe)
 Copying SCF densities to generalized density rwf, IOpCl= 0 IROHF=0.

 **********************************************************************

            Population analysis using the SCF density.

 **********************************************************************

 Orbital symmetries:
       Occupied  (A) (A) (A) (A) (A) (A) (A) (A) (A) (A) (A) (A)
                 (A) (A) (A) (A) (A) (A) (A) (A) (A) (A) (A) (A)
                 (A) (A) (A) (A) (A) (A) (A) (A)
       Virtual   (A) (A) (A) (A) (A) (A) (A) (A) (A) (A) (A) (A)
                 (A) (A) (A) (A) (A) (A) (A) (A) (A) (A) (A) (A)
                 (A) (A) (A) (A) (A) (A) (A) (A) (A) (A) (A) (A)
                 (A) (A) (A) (A) (A) (A) (A) (A) (A) (A) (A) (A)
                 (A) (A) (A) (A) (A) (A) (A) (A) (A) (A) (A) (A)
                 (A) (A) (A) (A) (A) (A) (A) (A) (A) (A) (A) (A)
                 (A) (A) (A) (A) (A) (A) (A) (A) (A) (A) (A) (A)
                 (A) (A) (A) (A) (A) (A) (A) (A) (A) (A) (A) (A)
                 (A) (A) (A) (A) (A) (A) (A) (A) (A) (A) (A) (A)
                 (A) (A) (A) (A) (A) (A) (A) (A) (A) (A) (A) (A)
                 (A) (A) (A) (A) (A) (A) (A) (A) (A) (A) (A) (A)
                 (A) (A) (A) (A) (A) (A) (A) (A) (A) (A) (A) (A)
                 (A) (A) (A) (A) (A) (A) (A) (A) (A) (A) (A) (A)
                 (A) (A) (A) (A) (A) (A) (A) (A) (A) (A) (A) (A)
                 (A) (A) (A) (A) (A) (A) (A) (A) (A) (A) (A) (A)
                 (A) (A) (A) (A)
 The electronic state is 1-A.
 Alpha  occ. eigenvalues --  -19.11169 -19.10585 -10.29034 -10.23668 -10.17445
 Alpha  occ. eigenvalues --  -10.16776 -10.16222 -10.16050  -1.07641  -0.98232
 Alpha  occ. eigenvalues --   -0.81544  -0.74739  -0.73072  -0.64537  -0.58281
 Alpha  occ. eigenvalues --   -0.54721  -0.49366  -0.47519  -0.46361  -0.45689
 Alpha  occ. eigenvalues --   -0.44516  -0.43094  -0.40604  -0.40064  -0.39456
 Alpha  occ. eigenvalues --   -0.37802  -0.36222  -0.34627  -0.34185  -0.29982
 Alpha  occ. eigenvalues --   -0.29046  -0.22898
 Alpha virt. eigenvalues --   -0.04697   0.01938   0.04125   0.06233   0.06659
 Alpha virt. eigenvalues --    0.07260   0.08788   0.11269   0.11775   0.12053
 Alpha virt. eigenvalues --    0.12904   0.13517   0.13965   0.19424   0.19585
 Alpha virt. eigenvalues --    0.21601   0.23522   0.26733   0.27855   0.29582
 Alpha virt. eigenvalues --    0.29995   0.30742   0.31669   0.32286   0.33221
 Alpha virt. eigenvalues --    0.34813   0.37906   0.38926   0.40484   0.45962
 Alpha virt. eigenvalues --    0.47292   0.50190   0.53465   0.53806   0.53989
 Alpha virt. eigenvalues --    0.54470   0.56062   0.56895   0.57405   0.57605
 Alpha virt. eigenvalues --    0.58129   0.58974   0.59211   0.59719   0.60276
 Alpha virt. eigenvalues --    0.60595   0.63955   0.64870   0.65878   0.68198
 Alpha virt. eigenvalues --    0.71114   0.77014   0.78739   0.82708   0.83159
 Alpha virt. eigenvalues --    0.90636   0.92355   0.93178   0.96144   0.99317
 Alpha virt. eigenvalues --    1.02243   1.05200   1.09001   1.11926   1.14639
 Alpha virt. eigenvalues --    1.16907   1.19186   1.21895   1.26084   1.30410
 Alpha virt. eigenvalues --    1.34019   1.36233   1.37651   1.42506   1.43491
 Alpha virt. eigenvalues --    1.44604   1.46484   1.46903   1.47490   1.48389
 Alpha virt. eigenvalues --    1.49371   1.50465   1.51437   1.52832   1.54406
 Alpha virt. eigenvalues --    1.56246   1.58661   1.60451   1.61217   1.65136
 Alpha virt. eigenvalues --    1.67142   1.68297   1.69383   1.73113   1.74796
 Alpha virt. eigenvalues --    1.75966   1.78487   1.80204   1.82071   1.83216
 Alpha virt. eigenvalues --    1.85185   1.89434   1.90958   1.94163   1.95856
 Alpha virt. eigenvalues --    1.99773   2.02757   2.03762   2.04987   2.11600
 Alpha virt. eigenvalues --    2.14171   2.16630   2.18676   2.19615   2.22517
 Alpha virt. eigenvalues --    2.25468   2.28569   2.31692   2.35537   2.38039
 Alpha virt. eigenvalues --    2.40349   2.42411   2.43408   2.44276   2.48039
 Alpha virt. eigenvalues --    2.48458   2.48566   2.49960   2.51282   2.52829
 Alpha virt. eigenvalues --    2.54444   2.58651   2.60705   2.61630   2.64331
 Alpha virt. eigenvalues --    2.65907   2.68945   2.72680   2.75565   2.78531
 Alpha virt. eigenvalues --    2.81954   2.84147   2.85389   2.91871   2.94636
 Alpha virt. eigenvalues --    2.96928   3.00356   3.09401   3.10912   3.11829
 Alpha virt. eigenvalues --    3.21236   3.25749   3.26371   3.28749   3.31868
 Alpha virt. eigenvalues --    3.44635   3.47062   3.60922   3.67855   3.77436
 Alpha virt. eigenvalues --    3.79214   3.79426   3.80215   3.82820   3.86487
 Alpha virt. eigenvalues --    4.00063   4.05340   4.16850   4.19689   4.36118
 Alpha virt. eigenvalues --    4.86792   4.93003   5.07649   5.24629   5.54832
 Alpha virt. eigenvalues --    5.78939  23.75103  23.76228  23.85107  23.91917
 Alpha virt. eigenvalues --   23.92971  24.04537  49.90759  49.97366
          Condensed to atoms (all electrons):
               1          2          3          4          5          6
     1  C    4.872457   0.361610  -0.073238  -0.007453  -0.000069   0.000025
     2  C    0.361610   4.886887   0.363456  -0.067098  -0.000207   0.001109
     3  C   -0.073238   0.363456   5.286473   0.439148  -0.042587   0.004732
     4  C   -0.007453  -0.067098   0.439148   4.816177   0.102176  -0.029123
     5  O   -0.000069  -0.000207  -0.042587   0.102176   8.045920   0.470765
     6  C    0.000025   0.001109   0.004732  -0.029123   0.470765   4.572723
     7  O    0.000017   0.003166  -0.093010  -0.027581  -0.069116   0.446829
     8  C   -0.000001  -0.000009  -0.002673   0.001558  -0.081956   0.346084
     9  H   -0.039056   0.407224  -0.042191  -0.005741   0.000748   0.001116
    10  H   -0.040782   0.408730  -0.039666   0.007865  -0.000034   0.000055
    11  H    0.001858  -0.010989   0.220076   0.005524  -0.005445  -0.056496
    12  H   -0.002747  -0.035442   0.397636  -0.034437   0.001807   0.001118
    13  H    0.000987  -0.005598  -0.035320   0.404439  -0.012595  -0.000692
    14  H   -0.000187   0.005263  -0.024688   0.397271  -0.012175   0.000164
    15  H    0.401085  -0.037417  -0.004473   0.004869  -0.000005   0.000004
    16  H    0.398503  -0.031701   0.008761   0.000029   0.000005   0.000003
    17  H    0.403603  -0.037327  -0.004426  -0.000326   0.000002   0.000003
    18  H    0.000000  -0.000003   0.000224  -0.000087   0.001232  -0.025670
    19  H    0.000000  -0.000003   0.000288   0.000203   0.012963  -0.035739
    20  H    0.000000  -0.000006   0.000221  -0.000103   0.002858  -0.027869
               7          8          9         10         11         12
     1  C    0.000017  -0.000001  -0.039056  -0.040782   0.001858  -0.002747
     2  C    0.003166  -0.000009   0.407224   0.408730  -0.010989  -0.035442
     3  C   -0.093010  -0.002673  -0.042191  -0.039666   0.220076   0.397636
     4  C   -0.027581   0.001558  -0.005741   0.007865   0.005524  -0.034437
     5  O   -0.069116  -0.081956   0.000748  -0.000034  -0.005445   0.001807
     6  C    0.446829   0.346084   0.001116   0.000055  -0.056496   0.001118
     7  O    8.018717  -0.080359   0.000611   0.001653   0.179234  -0.000094
     8  C   -0.080359   4.947086  -0.000014   0.000017   0.005564   0.000042
     9  H    0.000611  -0.000014   0.601663  -0.033759  -0.003469   0.007799
    10  H    0.001653   0.000017  -0.033759   0.588979  -0.003904  -0.003885
    11  H    0.179234   0.005564  -0.003469  -0.003904   0.390025  -0.007751
    12  H   -0.000094   0.000042   0.007799  -0.003885  -0.007751   0.549647
    13  H    0.000096  -0.000406   0.003227   0.000055   0.000976   0.005522
    14  H    0.000712  -0.000180   0.000027  -0.000398  -0.000260  -0.008936
    15  H    0.000019   0.000000  -0.007709   0.009170  -0.000022  -0.000385
    16  H    0.000010   0.000000  -0.005056  -0.004637  -0.000059  -0.000124
    17  H    0.000009   0.000000   0.009079  -0.006659  -0.000146   0.004549
    18  H    0.003132   0.387913  -0.000019   0.000001  -0.000052  -0.000007
    19  H    0.004996   0.379354  -0.000007  -0.000001  -0.000561  -0.000008
    20  H    0.006659   0.383679  -0.000001  -0.000004   0.000052  -0.000007
              13         14         15         16         17         18
     1  C    0.000987  -0.000187   0.401085   0.398503   0.403603   0.000000
     2  C   -0.005598   0.005263  -0.037417  -0.031701  -0.037327  -0.000003
     3  C   -0.035320  -0.024688  -0.004473   0.008761  -0.004426   0.000224
     4  C    0.404439   0.397271   0.004869   0.000029  -0.000326  -0.000087
     5  O   -0.012595  -0.012175  -0.000005   0.000005   0.000002   0.001232
     6  C   -0.000692   0.000164   0.000004   0.000003   0.000003  -0.025670
     7  O    0.000096   0.000712   0.000019   0.000010   0.000009   0.003132
     8  C   -0.000406  -0.000180   0.000000   0.000000   0.000000   0.387913
     9  H    0.003227   0.000027  -0.007709  -0.005056   0.009079  -0.000019
    10  H    0.000055  -0.000398   0.009170  -0.004637  -0.006659   0.000001
    11  H    0.000976  -0.000260  -0.000022  -0.000059  -0.000146  -0.000052
    12  H    0.005522  -0.008936  -0.000385  -0.000124   0.004549  -0.000007
    13  H    0.521868  -0.026779   0.000853  -0.000255   0.000060   0.000025
    14  H   -0.026779   0.520022  -0.000370   0.000034  -0.000008   0.000009
    15  H    0.000853  -0.000370   0.599199  -0.028932  -0.032803   0.000000
    16  H   -0.000255   0.000034  -0.028932   0.585355  -0.029371   0.000000
    17  H    0.000060  -0.000008  -0.032803  -0.029371   0.590634   0.000000
    18  H    0.000025   0.000009   0.000000   0.000000   0.000000   0.542420
    19  H    0.000088   0.000042   0.000000   0.000000   0.000000  -0.018528
    20  H    0.000021   0.000004   0.000000   0.000000   0.000000  -0.020424
              19         20
     1  C    0.000000   0.000000
     2  C   -0.000003  -0.000006
     3  C    0.000288   0.000221
     4  C    0.000203  -0.000103
     5  O    0.012963   0.002858
     6  C   -0.035739  -0.027869
     7  O    0.004996   0.006659
     8  C    0.379354   0.383679
     9  H   -0.000007  -0.000001
    10  H   -0.000001  -0.000004
    11  H   -0.000561   0.000052
    12  H   -0.000008  -0.000007
    13  H    0.000088   0.000021
    14  H    0.000042   0.000004
    15  H    0.000000   0.000000
    16  H    0.000000   0.000000
    17  H    0.000000   0.000000
    18  H   -0.018528  -0.020424
    19  H    0.552712  -0.020299
    20  H   -0.020299   0.546035
 Mulliken charges:
               1
     1  C   -0.276612
     2  C   -0.211646
     3  C   -0.358741
     4  C   -0.007312
     5  O   -0.414287
     6  C    0.330859
     7  O   -0.395698
     8  C   -0.285700
     9  H    0.105527
    10  H    0.117204
    11  H    0.285845
    12  H    0.125703
    13  H    0.143428
    14  H    0.150431
    15  H    0.096915
    16  H    0.107436
    17  H    0.103128
    18  H    0.129835
    19  H    0.124501
    20  H    0.129185
 Sum of Mulliken charges =   0.00000
 Mulliken charges with hydrogens summed into heavy atoms:
               1
     1  C    0.030868
     2  C    0.011085
     3  C    0.052807
     4  C    0.286547
     5  O   -0.414287
     6  C    0.330859
     7  O   -0.395698
     8  C    0.097820
 APT charges:
               1
     1  C   -1.320748
     2  C   -0.579136
     3  C   -0.513580
     4  C   -0.514062
     5  O   -0.362372
     6  C    0.201226
     7  O   -0.351047
     8  C   -1.155841
     9  H    0.198062
    10  H    0.377801
    11  H    0.157834
    12  H    0.418029
    13  H    0.340960
    14  H    0.464860
    15  H    0.262837
    16  H    0.594267
    17  H    0.431145
    18  H    0.365859
    19  H    0.464593
    20  H    0.519313
 Sum of APT charges =   0.00000
 APT charges with hydrogens summed into heavy atoms:
               1
     1  C   -0.032499
     2  C   -0.003272
     3  C    0.062282
     4  C    0.291759
     5  O   -0.362372
     6  C    0.201226
     7  O   -0.351047
     8  C    0.193924
 Electronic spatial extent (au):  <R**2>=           1463.2760
 Charge=              0.0000 electrons
 Dipole moment (field-independent basis, Debye):
    X=             -0.9170    Y=              0.8111    Z=             -0.3718  Tot=              1.2795
 Quadrupole moment (field-independent basis, Debye-Ang):
   XX=            -47.6614   YY=            -52.1206   ZZ=            -49.4781
   XY=             -1.2871   XZ=             -1.1363   YZ=              2.2341
 Traceless Quadrupole moment (field-independent basis, Debye-Ang):
   XX=              2.0920   YY=             -2.3672   ZZ=              0.2753
   XY=             -1.2871   XZ=             -1.1363   YZ=              2.2341
 Octapole moment (field-independent basis, Debye-Ang**2):
  XXX=             31.6007  YYY=              6.0963  ZZZ=              2.0615  XYY=             -3.4340
  XXY=             -5.7337  XXZ=             -0.8553  XZZ=              2.7029  YZZ=              1.6285
  YYZ=              0.0682  XYZ=              3.3097
 Hexadecapole moment (field-independent basis, Debye-Ang**3):
 XXXX=          -1562.1540 YYYY=           -255.3269 ZZZZ=           -137.9133 XXXY=              0.6315
 XXXZ=             -0.6371 YYYX=             -1.7619 YYYZ=              2.5319 ZZZX=             -2.7901
 ZZZY=              0.0222 XXYY=           -312.0559 XXZZ=           -282.5982 YYZZ=            -63.7469
 XXYZ=              1.4640 YYXZ=             -0.4436 ZZXY=             -0.5666
 N-N= 3.825103721407D+02 E-N=-1.667531647053D+03  KE= 3.848399054537D+02
  Exact polarizability:   0.000   0.000   0.000   0.000   0.000   0.000
 Approx polarizability: 129.309  -1.341 128.098  -8.646 -12.485  94.825
 No NMR shielding tensors so no spin-rotation constants.
 Leave Link  601 at Fri Nov 15 11:49:16 2019, MaxMem=  1835008000 cpu:         5.3
 (Enter /cm/shared/c3ddb/gaussian/09.d01/g09/l701.exe)
 Compute integral second derivatives.
 ... and contract with generalized density number  0.
 Leave Link  701 at Fri Nov 15 11:49:18 2019, MaxMem=  1835008000 cpu:        10.0
 (Enter /cm/shared/c3ddb/gaussian/09.d01/g09/l702.exe)
 L702 exits ... SP integral derivatives will be done elsewhere.
 Leave Link  702 at Fri Nov 15 11:49:18 2019, MaxMem=  1835008000 cpu:         0.1
 (Enter /cm/shared/c3ddb/gaussian/09.d01/g09/l703.exe)
 Compute integral second derivatives, UseDBF=F ICtDFT=           0.
 Integral derivatives from FoFJK, PRISM(SPDF).
 Calling FoFJK, ICntrl=    100147 FMM=F ISym2X=0 I1Cent= 0 IOpClX= 0 NMat=1 NMatS=1 NMatT=0.
 FoFJK:  IHMeth= 1 ICntrl=  100147 DoSepK=F KAlg= 0 I1Cent=   0 FoldK=F
 IRaf=         0 NMat=   1 IRICut=       1 DoRegI=T DoRafI=F ISym2E= 0.
 FoFCou: FMM=F IPFlag=           0 FMFlag=      100000 FMFlg1=         800
         NFxFlg=           0 DoJE=F BraDBF=F KetDBF=F FulRan=T
         wScrn=  0.000000 ICntrl=  100147 IOpCl=  0 I1Cent=           0 NGrid=           0
         NMat0=    1 NMatS0=      1 NMatT0=    0 NMatD0=    1 NMtDS0=    0 NMtDT0=    0
 Symmetry not used in FoFCou.
 Leave Link  703 at Fri Nov 15 11:52:10 2019, MaxMem=  1835008000 cpu:      1033.1
 (Enter /cm/shared/c3ddb/gaussian/09.d01/g09/l716.exe)
 Dipole        =-3.60772725D-01 3.19112122D-01-1.46280429D-01
 Polarizability= 0.00000000D+00 0.00000000D+00 0.00000000D+00
                 0.00000000D+00 0.00000000D+00 0.00000000D+00
 ***** Axes restored to original set *****
 -------------------------------------------------------------------
 Center     Atomic                   Forces (Hartrees/Bohr)
 Number     Number              X              Y              Z
 -------------------------------------------------------------------
      1        6          -0.000024560    0.000308219    0.000002518
      2        6          -0.000057997   -0.000494677    0.000156929
      3        6           0.000191659    0.000317178   -0.000503867
      4        6          -0.000137476   -0.000117998    0.000427659
      5        8           0.000006119   -0.000050990   -0.000000576
      6        6           0.000011660    0.000094700    0.000010205
      7        8           0.000006610   -0.000028566    0.000087326
      8        6           0.000068831   -0.000042887    0.000005509
      9        1          -0.000000158   -0.000005910   -0.000021360
     10        1           0.000024398    0.000006322    0.000026087
     11        1          -0.000010353    0.000003843   -0.000087588
     12        1          -0.000003678   -0.000004308    0.000010815
     13        1           0.000007951    0.000002458   -0.000040720
     14        1           0.000004246    0.000000762   -0.000040349
     15        1           0.000001114   -0.000004968   -0.000017355
     16        1           0.000000985   -0.000003577   -0.000010196
     17        1          -0.000003104    0.000001524    0.000011314
     18        1          -0.000012357    0.000017240    0.000013993
     19        1          -0.000024713   -0.000015483    0.000008028
     20        1          -0.000049178    0.000017118   -0.000038372
 -------------------------------------------------------------------
 Cartesian Forces:  Max     0.000503867 RMS     0.000130488
 FormGI is forming the generalized inverse of G from B-inverse, IUseBI=4.
 Leave Link  716 at Fri Nov 15 11:52:11 2019, MaxMem=  1835008000 cpu:         1.7
 (Enter /cm/shared/c3ddb/gaussian/09.d01/g09/l103.exe)

 GradGradGradGradGradGradGradGradGradGradGradGradGradGradGradGradGradGrad
 Berny optimization.
 Red2BG is reusing G-inverse.
 Internal  Forces:  Max     0.000287828 RMS     0.000061410
 Search for a saddle point.
 Step number   1 out of a maximum of   97
 All quantities printed in internal units (Hartrees-Bohrs-Radians)
 Swapping is turned off.
 Second derivative matrix not updated -- analytic derivatives used.
 ITU=  0
     Eigenvalues ---   -0.19709   0.00008   0.00130   0.00153   0.00273
     Eigenvalues ---    0.00919   0.01955   0.02571   0.02962   0.03488
     Eigenvalues ---    0.03863   0.04284   0.04524   0.04562   0.05026
     Eigenvalues ---    0.05483   0.05565   0.05940   0.06977   0.07286
     Eigenvalues ---    0.08135   0.10646   0.11288   0.12067   0.12196
     Eigenvalues ---    0.12512   0.13116   0.13436   0.13608   0.15164
     Eigenvalues ---    0.15753   0.19336   0.19962   0.20608   0.21694
     Eigenvalues ---    0.26848   0.27850   0.29513   0.32280   0.32946
     Eigenvalues ---    0.32961   0.33337   0.33459   0.33591   0.33866
     Eigenvalues ---    0.34058   0.34613   0.35476   0.35863   0.36338
     Eigenvalues ---    0.47872   0.52870   0.81226   1.05265
 Eigenvectors required to have negative eigenvalues:
                          R16       R9        A32       R8        A25
   1                    0.51530  -0.47141  -0.35282   0.27917  -0.23227
                          D23       D20       R13       R14       D21
   1                    0.20508  -0.18017   0.17458  -0.17302   0.15157
 RFO step:  Lambda0=7.019847342D-09 Lambda=-6.07370627D-05.
 Linear search not attempted -- option 19 set.
 Iteration  1 RMS(Cart)=  0.03899273 RMS(Int)=  0.00063925
 Iteration  2 RMS(Cart)=  0.00095324 RMS(Int)=  0.00000146
 Iteration  3 RMS(Cart)=  0.00000027 RMS(Int)=  0.00000145
 ITry= 1 IFail=0 DXMaxC= 1.23D-01 DCOld= 1.00D+10 DXMaxT= 3.00D-01 DXLimC= 3.00D+00 Rises=F
 Variable       Old X    -DE/DX   Delta X   Delta X   Delta X     New X
                                 (Linear)    (Quad)   (Total)
    R1        2.90053   0.00001   0.00000  -0.00019  -0.00019   2.90034
    R2        2.06810   0.00001   0.00000   0.00005   0.00005   2.06815
    R3        2.06739   0.00000   0.00000  -0.00003  -0.00003   2.06736
    R4        2.06783   0.00000   0.00000  -0.00003  -0.00003   2.06780
    R5        2.88357  -0.00001   0.00000  -0.00042  -0.00042   2.88315
    R6        2.07175   0.00000   0.00000  -0.00019  -0.00019   2.07156
    R7        2.06907   0.00000   0.00000   0.00038   0.00038   2.06944
    R8        2.65334   0.00006   0.00000   0.00021   0.00021   2.65355
    R9        2.46715   0.00000   0.00000  -0.00260  -0.00260   2.46455
   R10        2.06379  -0.00001   0.00000   0.00000   0.00000   2.06379
   R11        2.04750   0.00000   0.00000  -0.00004  -0.00004   2.04746
   R12        2.04405   0.00000   0.00000   0.00002   0.00002   2.04408
   R13        2.38795   0.00003   0.00000   0.00035   0.00035   2.38830
   R14        2.40278  -0.00002   0.00000  -0.00037  -0.00037   2.40241
   R15        2.85952   0.00000   0.00000   0.00002   0.00002   2.85953
   R16        2.51185   0.00009   0.00000   0.00368   0.00368   2.51553
   R17        2.06621   0.00001   0.00000   0.00024   0.00024   2.06645
   R18        2.05851   0.00000   0.00000   0.00003   0.00003   2.05854
   R19        2.06301  -0.00003   0.00000  -0.00027  -0.00027   2.06274
    A1        1.94006   0.00002   0.00000   0.00034   0.00034   1.94039
    A2        1.94313   0.00001   0.00000   0.00005   0.00005   1.94318
    A3        1.93794  -0.00002   0.00000  -0.00066  -0.00066   1.93729
    A4        1.88284  -0.00001   0.00000   0.00063   0.00063   1.88347
    A5        1.87661   0.00000   0.00000  -0.00004  -0.00004   1.87657
    A6        1.88046   0.00000   0.00000  -0.00031  -0.00031   1.88014
    A7        1.98641   0.00005   0.00000  -0.00153  -0.00153   1.98488
    A8        1.91156   0.00009   0.00000   0.00175   0.00175   1.91331
    A9        1.90767  -0.00011   0.00000  -0.00178  -0.00178   1.90589
   A10        1.90134   0.00000   0.00000  -0.00016  -0.00016   1.90119
   A11        1.90546  -0.00004   0.00000   0.00144   0.00143   1.90690
   A12        1.84614   0.00001   0.00000   0.00043   0.00043   1.84657
   A13        2.09780  -0.00002   0.00000   0.00138   0.00137   2.09917
   A14        1.85748  -0.00005   0.00000  -0.00113  -0.00113   1.85635
   A15        2.01636   0.00003   0.00000   0.00048   0.00047   2.01683
   A16        1.64884  -0.00007   0.00000  -0.00191  -0.00190   1.64694
   A17        2.00144   0.00006   0.00000   0.00167   0.00167   2.00311
   A18        1.74862   0.00000   0.00000  -0.00283  -0.00283   1.74579
   A19        2.11799  -0.00001   0.00000  -0.00054  -0.00054   2.11745
   A20        2.11215  -0.00001   0.00000  -0.00047  -0.00047   2.11167
   A21        2.00463   0.00000   0.00000   0.00025   0.00025   2.00488
   A22        2.16580   0.00008   0.00000  -0.00031  -0.00031   2.16549
   A23        2.06319  -0.00001   0.00000  -0.00012  -0.00012   2.06307
   A24        2.05415  -0.00007   0.00000   0.00041   0.00041   2.05456
   A25        1.80964   0.00015   0.00000  -0.00168  -0.00168   1.80796
   A26        1.90166   0.00000   0.00000  -0.00069  -0.00069   1.90097
   A27        1.93049   0.00005   0.00000   0.00045   0.00045   1.93094
   A28        1.91059  -0.00005   0.00000   0.00030   0.00030   1.91090
   A29        1.91192  -0.00001   0.00000  -0.00137  -0.00137   1.91055
   A30        1.87865  -0.00002   0.00000   0.00002   0.00002   1.87867
   A31        1.92958   0.00003   0.00000   0.00124   0.00124   1.93082
   A32        2.96064   0.00013   0.00000   0.00124   0.00124   2.96188
   A33        3.20675   0.00000   0.00000   0.00138   0.00138   3.20813
    D1        1.06292   0.00006   0.00000   0.00032   0.00032   1.06324
    D2       -1.06990  -0.00003   0.00000   0.00029   0.00029  -1.06961
    D3       -3.08500  -0.00004   0.00000  -0.00021  -0.00021  -3.08521
    D4       -3.12060   0.00007   0.00000   0.00138   0.00138  -3.11922
    D5        1.02977  -0.00003   0.00000   0.00135   0.00135   1.03111
    D6       -0.98534  -0.00003   0.00000   0.00085   0.00085  -0.98448
    D7       -1.02538   0.00006   0.00000   0.00058   0.00058  -1.02480
    D8        3.12498  -0.00003   0.00000   0.00054   0.00054   3.12553
    D9        1.10988  -0.00004   0.00000   0.00005   0.00005   1.10993
   D10       -1.40227  -0.00029   0.00000  -0.06608  -0.06609  -1.46835
   D11        3.04131  -0.00015   0.00000  -0.06357  -0.06357   2.97773
   D12        1.11809  -0.00014   0.00000  -0.05968  -0.05968   1.05841
   D13        0.73618  -0.00014   0.00000  -0.06499  -0.06500   0.67118
   D14       -1.10343  -0.00001   0.00000  -0.06248  -0.06248  -1.16592
   D15       -3.02665   0.00001   0.00000  -0.05859  -0.05859  -3.08524
   D16        2.74444  -0.00015   0.00000  -0.06379  -0.06379   2.68066
   D17        0.90483  -0.00002   0.00000  -0.06128  -0.06128   0.84355
   D18       -1.01838   0.00000   0.00000  -0.05738  -0.05738  -1.07577
   D19       -0.09435   0.00011   0.00000   0.00694   0.00695  -0.08741
   D20        2.70105   0.00006   0.00000   0.00436   0.00437   2.70542
   D21        1.85941  -0.00001   0.00000   0.00477   0.00477   1.86418
   D22       -1.62837  -0.00005   0.00000   0.00219   0.00219  -1.62618
   D23       -2.61969  -0.00003   0.00000   0.00099   0.00099  -2.61870
   D24        0.17572  -0.00008   0.00000  -0.00159  -0.00159   0.17412
   D25        1.95343  -0.00002   0.00000  -0.00948  -0.00948   1.94395
   D26       -0.16821   0.00002   0.00000  -0.01012  -0.01012  -0.17833
   D27       -2.18207  -0.00004   0.00000  -0.01127  -0.01127  -2.19334
   D28        0.14730   0.00000   0.00000   0.01445   0.01445   0.16175
   D29       -2.98324   0.00003   0.00000   0.01626   0.01626  -2.96698
   D30       -1.91674  -0.00001   0.00000   0.02381   0.02381  -1.89293
   D31        0.18586   0.00000   0.00000   0.02196   0.02196   0.20782
   D32        2.31624   0.00004   0.00000   0.02401   0.02401   2.34025
   D33        1.21447  -0.00003   0.00000   0.02211   0.02211   1.23658
   D34       -2.96611  -0.00002   0.00000   0.02026   0.02026  -2.94585
   D35       -0.83573   0.00002   0.00000   0.02231   0.02231  -0.81342
         Item               Value     Threshold  Converged?
 Maximum Force            0.000288     0.000015     NO 
 RMS     Force            0.000061     0.000010     NO 
 Maximum Displacement     0.123384     0.000060     NO 
 RMS     Displacement     0.039094     0.000040     NO 
 Predicted change in Energy=-3.153613D-05
 Lowest energy point so far.  Saving SCF results.
 GradGradGradGradGradGradGradGradGradGradGradGradGradGradGradGradGradGrad

 Leave Link  103 at Fri Nov 15 11:52:14 2019, MaxMem=  1835008000 cpu:        17.1
 (Enter /cm/shared/c3ddb/gaussian/09.d01/g09/l202.exe)
                          Input orientation:                          
 ---------------------------------------------------------------------
 Center     Atomic      Atomic             Coordinates (Angstroms)
 Number     Number       Type             X           Y           Z
 ---------------------------------------------------------------------
      1          6           0       -0.008894    0.035360    0.001390
      2          6           0        0.001854   -0.032133    1.534661
      3          6           0        1.402502   -0.026731    2.139562
      4          6           0        2.129107   -1.222928    2.253276
      5          8           0        2.132932   -1.891239    4.154584
      6          6           0        1.544714   -1.156829    4.998340
      7          8           0        1.112342    0.011867    4.746535
      8          6           0        1.324432   -1.703655    6.391979
      9          1           0       -0.525665   -0.933704    1.867212
     10          1           0       -0.568284    0.812183    1.936312
     11          1           0        1.246400    0.117225    3.426341
     12          1           0        2.006544    0.856562    1.921313
     13          1           0        1.687301   -2.177245    1.992519
     14          1           0        3.210180   -1.216651    2.288910
     15          1           0        0.504640   -0.826510   -0.435889
     16          1           0       -1.030676    0.052005   -0.389146
     17          1           0        0.498672    0.936872   -0.354984
     18          1           0        0.260903   -1.921417    6.523373
     19          1           0        1.902809   -2.614340    6.542896
     20          1           0        1.600433   -0.946392    7.128098
 ---------------------------------------------------------------------
                    Distance matrix (angstroms):
                    1          2          3          4          5
     1  C    0.000000
     2  C    1.534793   0.000000
     3  C    2.562747   1.525697   0.000000
     4  C    3.350422   2.541576   1.404198   0.000000
     5  O    5.054525   3.855096   2.840815   2.015348   0.000000
     6  C    5.366985   3.955052   3.077330   2.807358   1.263836
     7  O    4.875872   3.398714   2.623355   2.962241   2.239157
     8  C    6.755854   5.304408   4.571786   4.243521   2.386377
     9  H    2.165048   1.096220   2.148163   2.698243   3.635531
    10  H    2.158771   1.095103   2.151531   3.393827   4.418800
    11  H    3.648665   2.269286   1.304183   1.987779   2.313052
    12  H    2.902148   2.226670   1.092110   2.109384   3.543146
    13  H    3.425974   2.766202   2.174269   1.083470   2.225963
    14  H    4.142791   3.502189   2.169311   1.081678   2.257493
    15  H    1.094418   2.183321   2.842314   3.166646   4.985722
    16  H    1.093999   2.185001   3.510117   4.311853   5.867716
    17  H    1.094234   2.180953   2.822800   3.758467   5.568233
    18  H    6.814546   5.340763   4.910283   4.712940   3.019365
    19  H    7.312101   5.946751   5.131801   4.515317   2.505966
    20  H    7.371820   5.888792   5.076460   4.911198   3.165135
                    6          7          8          9         10
     6  C    0.000000
     7  O    1.271300   0.000000
     8  C    1.513200   2.386522   0.000000
     9  H    3.760348   3.444949   4.948657   0.000000
    10  H    4.209250   3.370811   5.455712   1.747774   0.000000
    11  H    2.045333   1.331159   3.480906   2.583709   2.448720
    12  H    3.706093   3.081393   5.196811   3.101623   2.575253
    13  H    3.177505   3.564743   4.439731   2.541519   3.745331
    14  H    3.180938   3.456892   4.541850   3.770203   4.303171
    15  H    5.542716   5.284855   6.932620   2.525330   3.076331
    16  H    6.092530   5.565012   7.390030   2.513525   2.489866
    17  H    5.842591   5.220893   7.292172   3.080013   2.530608
    18  H    2.135062   2.760378   1.093517   4.824324   5.403818
    19  H    2.153654   3.278524   1.089331   5.530285   6.250439
    20  H    2.140855   2.613108   1.091556   5.674273   5.894961
                   11         12         13         14         15
    11  H    0.000000
    12  H    1.841072   0.000000
    13  H    2.741320   3.051389   0.000000
    14  H    2.632377   2.425299   1.824760   0.000000
    15  H    4.044461   3.262644   3.019989   3.859622   0.000000
    16  H    4.443790   3.900030   4.246091   5.173619   1.769511
    17  H    3.940728   2.731603   4.076927   4.356616   1.765247
    18  H    3.836518   5.651848   4.756963   5.208225   7.049082
    19  H    4.195860   5.780740   4.576399   4.664671   7.338573
    20  H    3.867767   5.525050   5.281734   5.107061   7.643888
                   16         17         18         19         20
    16  H    0.000000
    17  H    1.767219   0.000000
    18  H    7.303800   7.452392   0.000000
    19  H    7.985483   7.884381   1.782240   0.000000
    20  H    8.026736   7.794683   1.763719   1.793306   0.000000
 Stoichiometry    C6H12O2
 Framework group  C1[X(C6H12O2)]
 Deg. of freedom    54
 Full point group                 C1      NOp   1
 RotChk:  IX=0 Diff= 5.17D-03
 Largest Abelian subgroup         C1      NOp   1
 Largest concise Abelian subgroup C1      NOp   1
                         Standard orientation:                         
 ---------------------------------------------------------------------
 Center     Atomic      Atomic             Coordinates (Angstroms)
 Number     Number       Type             X           Y           Z
 ---------------------------------------------------------------------
      1          6           0       -3.513068   -0.212948   -0.356439
      2          6           0       -2.055291   -0.690805   -0.310308
      3          6           0       -1.171478    0.124418    0.628860
      4          6           0       -0.584784    1.321465    0.187677
      5          8           0        1.374732    1.065973   -0.208112
      6          6           0        1.838797   -0.086107    0.025633
      7          8           0        1.196698   -1.004180    0.626510
      8          6           0        3.239441   -0.403225   -0.451238
      9          1           0       -1.625838   -0.660529   -1.318451
     10          1           0       -2.030574   -1.742814   -0.007130
     11          1           0       -0.038391   -0.515584    0.714909
     12          1           0       -1.471570    0.121764    1.678928
     13          1           0       -0.678246    1.648872   -0.840903
     14          1           0       -0.307511    2.097231    0.888629
     15          1           0       -3.579419    0.820149   -0.711485
     16          1           0       -4.115661   -0.837162   -1.022827
     17          1           0       -3.969371   -0.249637    0.637437
     18          1           0        3.178456   -1.098934   -1.292695
     19          1           0        3.752152    0.504510   -0.767128
     20          1           0        3.792837   -0.898998    0.348423
 ---------------------------------------------------------------------
 Rotational constants (GHZ):      4.7376347      0.9008154      0.8266002
 Leave Link  202 at Fri Nov 15 11:52:14 2019, MaxMem=  1835008000 cpu:         0.5
 (Enter /cm/shared/c3ddb/gaussian/09.d01/g09/l301.exe)
 Standard basis: 6-311G(2d,d,p) (5D, 7F)
 Ernie: Thresh=  0.10000D-02 Tol=  0.10000D-05 Strict=F.
 There are   224 symmetry adapted cartesian basis functions of A   symmetry.
 There are   216 symmetry adapted basis functions of A   symmetry.
   216 basis functions,   352 primitive gaussians,   224 cartesian basis functions
    32 alpha electrons       32 beta electrons
       nuclear repulsion energy       382.4448034476 Hartrees.
 IExCor=  402 DFT=T Ex+Corr=B3LYP ExCW=0 ScaHFX=  0.200000
[...]
 09874564,-0.01912427,0.04416550,-0.04557740,0.00005281,-0.01645369,0.0
 6774280,0.00665192,0.03241975,-0.15207378,-0.00617436,-0.05221976,0.15
 956566,0.00023751,0.00002453,-0.00004529,-0.00052074,0.00004231,0.0003
 6206,0.00075266,-0.00458851,-0.00302993,0.00036556,0.00509180,-0.00508
 433,0.01032475,0.00630483,0.03142938,-0.08932405,-0.01225261,0.0063392
 3,0.01815614,0.01453501,-0.01433633,0.53866245,-0.00020098,-0.00004347
 ,0.00000261,0.00004344,-0.00000453,-0.00097143,-0.00480459,0.00604943,
 0.00790061,0.00473544,-0.00653505,0.00859842,0.01300306,0.01284564,-0.
 02822977,-0.01278411,-0.09018171,0.03574244,0.00630157,-0.02756028,0.0
 4805112,-0.03374603,0.57525193,-0.00035213,-0.00006657,0.00001929,0.00
 065265,0.00012840,-0.00040411,-0.00140179,0.00147590,0.00145576,0.0017
 6520,-0.00210317,0.00365861,0.01981041,-0.00046728,-0.03862751,0.00838
 312,0.03561323,-0.16629585,0.00098372,0.01779380,-0.00666178,0.0110959
 6,0.03292742,0.47591298,0.00015810,0.00033318,0.00015298,-0.10362013,-
 0.09641436,0.03533871,-0.01830994,-0.02560878,0.00731702,0.00178637,-0
 .00284612,0.00129071,0.00020291,0.00037043,-0.00065948,-0.00027531,0.0
 0016577,-0.00023777,0.00024722,-0.00001527,-0.00043205,0.00004568,-0.0
 0001273,-0.00005728,0.11472664,0.00017973,-0.00014016,0.00025735,-0.09
 823471,-0.22118064,0.06071812,-0.00047311,-0.00050986,-0.00044551,0.00
 141338,0.00031164,0.00046350,0.00016000,0.00012971,-0.00068517,-0.0005
 3450,0.00051197,0.00015567,0.00051622,-0.00010513,-0.00036057,0.000013
 48,-0.00001259,-0.00007403,0.10837922,0.23865963,0.01582264,0.02919586
 ,-0.01258871,0.03552726,0.06105818,-0.06781993,-0.00726055,-0.01180694
 ,0.00252709,0.00031429,-0.00007140,0.00068837,0.00019913,-0.00013451,0
 .00006156,-0.00021220,0.00012363,-0.00018608,0.00034901,0.00006600,-0.
 00034376,-0.00004826,0.00001652,-0.00003021,-0.03563545,-0.06809577,0.
 07798246,0.00025181,0.00010742,0.00047118,-0.11334565,0.09849971,0.048
 64138,-0.01631737,0.02442209,0.00380959,-0.00646510,-0.00133237,-0.000
 51818,0.00021787,-0.00012719,-0.00011986,0.00005284,-0.00023947,0.0002
 9946,0.00028494,0.00005945,-0.00247467,0.00000314,0.00011579,-0.000100
 14,0.00860049,-0.01202089,-0.00616673,0.12573349,-0.00159537,0.0020883
 8,0.00095716,0.09984244,-0.20278785,-0.07148204,-0.00125007,0.00173878
 ,0.00221324,0.00061639,0.00074030,-0.00047104,-0.00008540,0.00024182,0
 .00033705,0.00026346,-0.00049069,-0.00027232,-0.00040609,0.00015620,0.
 00087212,-0.00000436,-0.00003172,0.00005519,0.01364144,-0.02176152,-0.
 00941245,-0.11087806,0.21673885,0.01696454,-0.02740499,-0.01579588,0.0
 4815909,-0.07182112,-0.08008296,-0.00723040,0.01188597,0.00291365,-0.0
 0346189,-0.00007982,-0.00007036,0.00028361,-0.00027189,-0.00015698,-0.
 00031350,0.00063274,0.00034723,0.00064832,-0.00055025,-0.00037418,-0.0
 0003278,-0.00007061,-0.00002074,-0.00548268,0.00720397,0.00320039,-0.0
 4825881,0.07838557,0.09268215,-0.00366890,0.00014643,-0.00131048,-0.00
 032974,-0.00306513,-0.01851112,-0.02904495,-0.00009763,0.00824590,-0.0
 0588936,0.00302634,0.00748238,-0.00213319,0.00428090,0.00166796,0.0059
 1864,-0.00531769,-0.00828067,-0.02644301,0.00629510,0.00125060,0.00097
 646,0.00131965,-0.00012281,-0.00002439,-0.00041635,-0.00011448,-0.0001
 5337,0.00038211,-0.00083070,0.06412791,0.00105451,0.00019242,-0.000008
 82,-0.00018308,-0.00020465,0.00164780,0.00669174,-0.03555164,-0.022792
 68,-0.00095193,0.00057088,-0.02026268,-0.00090036,-0.00173429,0.009881
 94,0.00427495,-0.01464772,0.02084974,0.00268328,-0.02325776,-0.0193112
 6,0.00137528,-0.00140094,0.00021622,-0.00015147,-0.00024322,-0.0004582
 1,0.00066144,0.00016138,0.00074139,-0.00850680,0.07549157,-0.00076369,
 -0.00064641,0.00119302,-0.00478764,-0.00168586,-0.01705531,-0.03516259
 ,0.05379175,0.02555913,0.03527859,-0.07489361,0.04673134,0.02450326,-0
 .02101225,-0.07832542,-0.05661955,0.11662223,0.01421373,0.01574894,-0.
 05903785,0.06066706,0.00567524,-0.01282915,-0.00080291,0.00095338,0.00
 049461,0.00103190,0.00396257,-0.00107746,0.00149044,0.00292481,0.00754
 552,-0.02829748,0.00083344,0.00000900,0.00135441,-0.01297737,-0.022142
 74,0.00811024,-0.13113692,-0.12224490,0.01998967,0.00969239,0.01828563
 ,-0.00319296,-0.00024988,0.00083917,-0.00044331,0.00009239,-0.00057867
 ,0.00016137,0.00042565,0.00125038,-0.00062350,-0.00013300,0.00016973,-
 0.00008861,-0.00508575,0.00050590,-0.00275757,0.00038616,0.00057329,0.
 00049145,-0.00294081,-0.00545102,0.00347536,0.14033819,0.00022880,0.00
 028689,-0.00013445,0.00065766,0.00144255,0.00005102,-0.11533230,-0.213
 61470,0.04999052,-0.01490948,-0.02644936,0.00802270,0.00049301,-0.0003
 1917,-0.00194479,-0.00041609,0.00106878,-0.00031188,-0.00013690,-0.000
 64469,0.00190419,0.00015915,-0.00015175,0.00001220,0.00053069,0.001132
 45,0.00027176,-0.00044028,0.00023092,-0.00036111,0.00063733,0.00123184
 ,-0.00268499,0.12562313,0.23720059,-0.00012410,-0.00107753,0.00153688,
 -0.00651513,-0.01120405,0.00098821,0.02255031,0.06287391,-0.03549191,0
 .00366263,-0.01291167,0.00529755,0.00176061,0.00035996,-0.01067029,-0.
 00506351,0.01003460,0.00368071,0.00005174,-0.00745414,0.00633823,0.000
 91071,-0.00104295,-0.00044742,-0.00246452,-0.00040376,-0.00040313,0.00
 071589,0.00012870,0.00024791,0.00971924,0.01583854,-0.01473395,-0.0261
 9347,-0.05376041,0.04415031,0.00029660,0.00003810,-0.00015987,0.001168
 72,0.00094376,0.00012050,0.01177093,0.01302046,0.00101189,-0.10862585,
 -0.10262817,-0.03267876,0.00103965,0.00188079,0.00475329,0.00149580,-0
 .00235055,0.00011450,-0.00049785,0.00144232,-0.00119130,-0.00045454,0.
 00019648,0.00015190,-0.00002918,-0.00035590,0.00038188,-0.00002657,-0.
 00032104,0.00008773,-0.00032438,-0.00026532,0.00244760,-0.00116907,0.0
 0265483,-0.00006831,0.10272504,0.00069594,-0.00015313,0.00008666,-0.00
 252904,0.00144883,0.00032064,-0.01203115,-0.01730362,-0.00315944,-0.10
 446303,-0.27638569,-0.06201684,0.00106473,0.00348184,0.00335405,0.0007
 4703,-0.00103705,0.00028641,-0.00024550,0.00068333,-0.00062957,-0.0002
 6039,-0.00006918,-0.00011825,0.00119353,0.00042830,0.00009879,-0.00006
 568,0.00043413,-0.00013804,0.00027955,-0.00116497,0.00058458,0.0027725
 1,-0.00280866,-0.00248013,0.11082005,0.28963549,-0.00085574,0.00015041
 ,0.00010609,0.00263945,-0.00034823,-0.00337330,-0.00543900,0.00430863,
 0.01379638,-0.02469724,-0.06653880,-0.04553789,-0.00207203,-0.00755612
 ,-0.02263419,-0.00482466,0.00802434,-0.00078660,0.00133513,-0.00370411
 ,0.00427439,0.00134055,-0.00080839,-0.00034984,0.00014583,0.00003317,0
 .00015471,0.00017385,-0.00012910,0.00013021,-0.00079337,0.00350901,-0.
 00642486,0.00091635,0.00096441,0.00391273,0.03282336,0.06204251,0.0527
 0676,-0.00011232,0.00010228,0.00018937,0.00063096,0.00256570,0.0013617
 4,-0.00911845,-0.00416938,-0.00357369,-0.34838438,-0.00322067,-0.01351
 416,0.00210240,-0.00018136,0.00129853,-0.00007646,-0.00021256,0.000147
 95,0.00027889,-0.00001358,-0.00015668,-0.00028338,0.00000130,-0.000068
 77,0.00046679,-0.00004043,0.00007290,-0.00063247,0.00008772,-0.0006027
 6,-0.00003315,0.00000130,0.00021850,0.00128783,0.00043929,0.00033210,-
 0.00728055,0.00213055,-0.00093105,0.36110217,-0.00008103,0.00009057,-0
 .00016222,0.00099220,-0.00408315,-0.00273280,0.02598525,0.00480735,0.0
 0413673,-0.00471459,-0.05699588,-0.00288224,-0.00120778,0.00022241,0.0
 0088134,-0.00007504,0.00035778,0.00017124,0.00002738,-0.00048160,0.000
 09392,0.00015948,-0.00000873,-0.00007165,0.00025443,0.00024140,-0.0001
 2550,0.00149391,0.00011029,0.00060058,0.00008418,-0.00023653,-0.001009
 78,-0.00025272,0.00146240,0.00088051,-0.02509482,0.00260259,0.00046856
 ,0.00255450,0.05197171,0.00105442,-0.00028887,0.00018588,-0.00305566,0
 .00050252,0.00422939,-0.00074808,0.00424873,0.01010689,-0.01429241,-0.
 01118106,-0.03158477,0.01321656,0.00207268,-0.01749508,-0.00263788,0.0
 0829125,-0.00074583,0.00074168,-0.00310339,0.00357599,0.00010065,-0.00
 164218,-0.00091433,-0.00011349,-0.00008743,-0.00019696,-0.00047982,0.0
 0009221,-0.00044756,-0.00105525,0.00164563,-0.00434803,-0.00014215,-0.
 00135404,-0.00368993,-0.00811294,0.00125591,0.00520004,0.01540576,-0.0
 0049841,0.03626993,-0.10453292,0.09580169,0.04653268,-0.00109066,-0.00
 014448,-0.00030069,0.00089189,-0.00123275,0.00012257,0.00033846,0.0005
 6429,0.00001335,-0.00001856,-0.00012393,0.00011470,0.00000353,0.000095
 89,-0.00012575,-0.00002345,-0.00002414,0.00024545,-0.00001383,-0.00000
 704,0.00003363,-0.00021178,0.00007432,0.00033175,0.00112563,-0.0004662
 4,-0.00015443,0.00007502,-0.00013741,-0.00026052,0.00009658,-0.0000938
 5,0.00004532,0.00002598,-0.00002485,0.00000768,0.00005012,-0.00008268,
 -0.00002300,0.10933544,0.09566073,-0.20906797,-0.07893137,-0.00108592,
 0.00203428,0.00128844,-0.00049365,0.00072478,0.00060191,-0.00027455,-0
 .00023085,-0.00017003,-0.00000406,0.00006139,-0.00027492,-0.00011144,0
 .00025423,0.00012068,0.00003273,-0.00016187,0.00036383,0.00002864,-0.0
 0004201,-0.00000532,-0.00019317,0.00086997,-0.00055540,-0.00010973,0.0
 0158796,0.00087874,-0.00008107,0.00007372,-0.00045296,-0.00006917,-0.0
 0014181,-0.00018473,0.00005152,0.00004611,-0.00006450,-0.00010739,0.00
 000457,-0.00005528,-0.10621862,0.22503087,0.04568977,-0.07827533,-0.08
 414413,0.01625537,-0.02787174,-0.01527959,0.00063060,0.00054810,0.0035
 5344,-0.00047110,-0.00050485,0.00030364,0.00004330,0.00013541,-0.00036
 593,-0.00011482,0.00030125,0.00001155,-0.00019567,-0.00019313,0.000973
 33,0.00003689,-0.00007112,0.00000746,0.00005970,0.00042815,0.00155097,
 -0.00024372,0.00085234,-0.00679930,0.00052030,0.00005727,-0.00128633,-
 0.00011060,-0.00007561,-0.00033393,-0.00000982,0.00032427,-0.00032590,
 -0.00000510,0.00016991,-0.00008317,-0.05190486,0.08667910,0.09452318,-
 0.27537392,0.00370700,-0.08306591,0.00173806,0.00002149,0.00187236,0.0
 0094964,0.00024937,-0.00123265,0.00059050,-0.00080797,0.00040242,-0.00
 001941,0.00016615,-0.00041620,-0.00001639,-0.00019290,0.00031167,0.000
 07957,0.00014000,-0.00095516,0.00004361,0.00004827,-0.00009602,0.00039
 073,0.00032426,-0.00054009,0.00046393,-0.00027585,-0.00060179,-0.00040
 950,0.00017752,0.00109295,0.00019266,0.00016003,0.00035686,-0.00001407
 ,-0.00001689,0.00007540,0.00003283,-0.00003488,-0.00010396,-0.01348755
 ,-0.00038368,-0.00440756,0.29841846,0.00369850,-0.04795365,0.00098762,
 0.00163845,-0.00119805,0.00042131,-0.00027306,0.00112817,0.00090320,-0
 .00004094,0.00004792,0.00002717,0.00002432,-0.00003039,-0.00034061,-0.
 00018855,0.00041740,0.00008111,0.00000421,-0.00026620,0.00043449,0.000
 02885,-0.00004911,0.00000094,0.00031946,0.00001513,-0.00007646,-0.0003
 2263,0.00007791,-0.00008777,0.00026471,0.00015951,-0.00049902,0.000212
 77,0.00005804,0.00020427,0.00000377,0.00004520,-0.00017912,-0.00001465
 ,-0.00000940,0.00002269,0.02442928,0.00010457,0.00975279,-0.00401324,0
 .04639257,-0.08209818,0.00095020,-0.07716334,-0.03155137,0.00027398,-0
 .01017660,0.00004851,0.00206434,-0.00581471,0.00060566,-0.00240097,0.0
 0068747,0.00016676,0.00029672,-0.00180039,-0.00067021,0.00084967,0.000
 80204,0.00046044,-0.00043743,-0.00037682,0.00012234,-0.00007129,-0.000
 18493,0.00016241,0.00055308,0.00123595,0.00020979,-0.00066693,0.001301
 03,-0.00113935,0.00035555,-0.00001914,-0.00005817,-0.00019077,-0.00005
 763,0.00011272,0.00023012,-0.00040501,-0.00008770,0.00005127,0.0002706
 8,0.01214899,0.00099252,0.00409380,0.09174369,-0.00160860,0.08455761,-
 0.10307011,-0.09930737,0.03699693,-0.00072717,0.00048033,-0.00004312,0
 .00092425,0.00105215,-0.00015482,0.00002206,0.00039343,-0.00005913,-0.
 00002932,-0.00006788,0.00021419,0.00003237,0.00000714,-0.00015555,-0.0
 0002521,0.00000131,0.00021557,-0.00001587,-0.00001065,0.00003680,0.000
 91142,0.00046398,-0.00027795,-0.00019077,-0.00010386,0.00033037,0.0000
 3719,-0.00008806,-0.00022957,0.00030502,-0.00024672,0.00015752,-0.0000
 2686,-0.00007305,0.00004085,-0.00000936,-0.00001965,-0.00000928,0.0074
 3537,0.01336311,-0.00577039,-0.01358320,-0.02577271,0.00980068,0.10800
 910,-0.09906260,-0.22476750,0.06604397,-0.00017290,-0.00052293,0.00047
 711,0.00015619,0.00053596,-0.00053107,0.00012463,-0.00026196,-0.000048
 80,0.00000072,0.00006832,0.00005539,0.00001635,-0.00003006,-0.00006685
 ,0.00000215,-0.00000533,-0.00005435,-0.00000263,0.00000337,0.00001491,
 0.00005643,0.00164257,-0.00009831,0.00014481,0.00078872,0.00046673,0.0
 0004159,0.00008749,0.00004073,0.00048378,0.00005256,0.00043831,-0.0000
 8413,0.00012146,0.00002237,0.00005793,-0.00000845,0.00000152,-0.012407
 27,-0.02113908,0.00776025,0.00071063,0.00107019,-0.00124511,0.10993251
 ,0.24236365,0.03641702,0.06540272,-0.07051554,0.01570149,0.02918384,-0
 .01210611,0.00155784,-0.00010544,0.00179117,-0.00057685,0.00043137,-0.
 00037274,-0.00008510,-0.00007883,0.00052823,0.00028206,-0.00036309,-0.
 00006470,-0.00022351,0.00017123,0.00007237,-0.00002353,0.00002763,0.00
 003507,-0.00030645,-0.00009437,-0.00685082,0.00012321,-0.00041722,0.00
 143189,0.00026905,-0.00014463,-0.00002033,-0.00080961,-0.00038069,-0.0
 0014908,0.00009114,-0.00010978,0.00000754,-0.00006425,0.00002831,0.000
 03627,-0.00683619,-0.01023426,0.00359352,-0.00439836,-0.01004601,0.003
 11737,-0.04109924,-0.07327314,0.07944045,0.00005226,0.00001215,0.00000
 269,-0.00011252,-0.00002090,0.00005888,0.00019284,-0.00045840,-0.00028
 218,-0.00017588,0.00040796,-0.00064373,0.00091923,-0.00074154,0.001500
 40,-0.00486365,-0.00004582,0.00103908,0.00099490,0.00084646,-0.0006775
 3,-0.29467981,-0.05317296,0.02761684,0.00002012,0.00002413,-0.00000148
 ,0.00001152,-0.00001275,0.00000238,-0.00000597,-0.00006117,0.00074045,
 0.00000256,0.00001318,0.00009194,-0.00005312,-0.00001686,0.00010121,-0
 .00001098,0.00001564,0.00006629,-0.00000385,0.00000028,0.00000069,0.00
 001030,0.00000148,0.00002337,-0.00000157,0.00000398,-0.00001128,0.3195
 8243,0.00001383,-0.00000267,-0.00000514,-0.00005101,0.00002447,-0.0000
 2738,-0.00013353,-0.00002201,0.00014853,-0.00006278,-0.00001213,-0.000
 11496,0.00056533,0.00039036,0.00034338,-0.01225258,-0.00358678,-0.0015
 9338,0.00252265,-0.00041840,0.00169120,-0.05367135,-0.05515290,0.00824
 571,-0.00000170,0.00001135,0.00000366,0.00000678,-0.00002130,-0.000002
 70,0.00030402,0.00013417,-0.00034291,-0.00000312,0.00000407,0.00000188
 ,-0.00000830,-0.00000981,-0.00001641,-0.00000776,-0.00001062,0.0000293
 0,0.00000306,-0.00000245,-0.00000559,0.00000558,0.00000176,0.00000821,
 -0.00000252,0.00000041,-0.00000202,0.05885781,0.05553551,-0.00009897,-
 0.00003569,0.00000100,0.00024008,0.00007877,-0.00010101,-0.00019556,0.
 00112619,0.00069054,-0.00001763,-0.00151608,0.00148222,-0.00282865,-0.
 00108085,-0.00610499,0.03464672,0.00753713,-0.00128610,-0.00413025,-0.
 00168150,0.00049269,0.03159639,0.00948146,-0.04535801,-0.00003993,-0.0
 0006035,-0.00001908,-0.00001875,0.00002035,0.00000096,-0.00015733,-0.0
 0001578,-0.00106884,-0.00001860,-0.00003579,-0.00023665,0.00014509,0.0
 0007096,-0.00044320,0.00004971,-0.00004040,-0.00007936,0.00000542,0.00
 000055,0.00000074,-0.00001886,-0.00000237,-0.00004604,0.00000104,-0.00
 000695,0.00002789,-0.03186955,-0.00807795,0.04931900,-0.00002012,0.000
 00350,-0.00000089,0.00002442,-0.00000784,-0.00003344,-0.00016995,0.000
 19270,-0.00001648,0.00005733,-0.00019388,0.00030973,0.00002343,-0.0006
 5814,-0.00063233,0.00096510,-0.00532401,0.00115406,0.00136781,-0.00077
 639,0.00169516,-0.12574991,0.12290132,-0.02171984,-0.00000723,0.000008
 44,0.00000980,0.00000299,-0.00001471,0.00000210,0.00030856,-0.00018189
 ,0.00001939,0.00002319,-0.00001481,-0.00001611,0.00001058,0.00000108,-
 0.00005883,0.00000014,-0.00001450,0.00000630,0.00000656,-0.00000578,-0
 .00000753,-0.00000692,0.00000017,-0.00001154,0.00000153,-0.00000128,-0
 .00000045,-0.01450594,0.02610000,-0.00490976,0.13267011,-0.00002403,-0
 .00000916,0.00000630,-0.00000995,0.00000762,-0.00018189,-0.00075577,0.
 00131128,0.00182745,0.00041232,-0.00122370,0.00140439,-0.00074345,0.00
 157471,-0.00262221,0.00647609,-0.01097103,-0.00253786,-0.00019249,-0.0
 0134128,0.00599446,0.12163163,-0.23431378,0.03203853,-0.00000103,-0.00
 000567,0.00000158,0.00002395,-0.00000354,-0.00001166,0.00031978,0.0001
 6887,-0.00303663,0.00001565,-0.00004157,-0.00025136,0.00005246,0.00000
 592,-0.00018827,0.00002207,-0.00002480,-0.00010859,-0.00000411,-0.0000
 0407,-0.00001169,0.00001679,-0.00001081,-0.00000511,-0.00000283,-0.000
 00151,0.00000622,-0.00451169,0.00783654,-0.00176604,-0.13370829,0.2522
 6184,0.00008240,0.00001755,-0.00000259,-0.00006544,-0.00000089,0.00029
 449,0.00122665,-0.00209419,-0.00232165,-0.00085888,0.00192499,-0.00227
 879,0.00093355,-0.00187350,0.00349389,-0.02014899,0.02360719,0.0012515
 5,0.00138715,0.00607498,-0.01003352,-0.01864095,0.02718195,-0.05423844
 ,0.00001093,0.00001115,-0.00000069,-0.00002714,0.00000196,0.00001556,-
 0.00009374,0.00054018,0.00433852,-0.00006600,0.00003960,0.00038796,-0.
 00010669,0.00002132,0.00025699,-0.00004653,0.00005110,0.00026745,0.000
 00121,0.00001221,0.00001858,-0.00000911,0.00001604,0.00003039,0.000000
 34,-0.00000180,-0.00001197,0.00145098,-0.00372767,-0.00035938,0.021543
 47,-0.03507264,0.05436033,0.00002712,0.00001943,-0.00000052,-0.0000393
 0,-0.00005368,0.00007907,0.00034642,-0.00039619,-0.00053723,-0.0004093
 6,0.00047409,-0.00051890,-0.00074789,-0.00090554,0.00224857,0.00049233
 ,0.00395160,0.00610668,-0.00059828,0.00116813,-0.00145023,-0.05839282,
 -0.04409696,-0.04652285,0.00000725,0.00001283,0.00000611,-0.00000352,0
 .00000694,0.00000014,-0.00004304,-0.00004152,0.00078251,0.00001675,-0.
 00000666,0.00009029,-0.00003126,0.00002149,0.00007227,-0.00001062,0.00
 001072,0.00018226,-0.00000199,0.00000121,0.00000456,0.00000068,-0.0000
 0021,0.00001118,0.00000113,-0.00000088,-0.00000698,-0.00737288,-0.0221
 8442,-0.02238060,0.00499833,0.01098291,0.01342678,0.06176094,0.0000023
 4,0.00000620,0.00000019,-0.00000719,-0.00001790,0.00001391,0.00010445,
 0.00000280,-0.00031923,-0.00049060,0.00012229,-0.00008102,-0.00172551,
 0.00018046,0.00156255,0.00619159,0.00896365,0.00747897,-0.00090873,-0.
 00065952,-0.00010877,-0.04486910,-0.17859262,-0.12561617,0.00000005,0.
 00000467,-0.00000103,0.00000097,0.00000097,0.00000428,0.00010296,0.000
 16986,0.00012947,0.00000140,0.00000063,0.00001004,0.00000368,-0.000001
 09,0.00000965,0.00000515,-0.00001191,0.00015679,-0.00000116,-0.0000023
 3,0.00000026,-0.00000169,-0.00000073,0.00000054,0.00000135,0.00000211,
 -0.00000187,-0.00114098,-0.00469955,-0.00399565,-0.00830569,-0.0152158
 6,-0.01672951,0.05103671,0.18974786,-0.00010869,-0.00001870,0.00000668
 ,0.00016301,0.00001668,-0.00026666,-0.00129854,0.00162060,0.00189116,0
 .00128170,-0.00201676,0.00291866,0.00373525,0.00326504,-0.00773786,-0.
 01054522,-0.02542262,-0.01879423,0.00228477,0.00120934,0.00498908,-0.0
 4776800,-0.12419331,-0.16675307,-0.00000258,-0.00001184,0.00000596,0.0
 0000089,0.00001268,-0.00001346,0.00032907,0.00016527,-0.00284255,0.000
 00571,-0.00002185,-0.00032658,0.00008609,-0.00002414,-0.00026506,-0.00
 002587,-0.00001047,-0.00055751,0.00000269,-0.00000923,-0.00001193,-0.0
 0000967,-0.00001165,-0.00005174,0.00000476,0.00000510,0.00000951,0.000
 79055,0.00344424,0.00308762,0.00266718,0.00451502,0.00453130,0.0484069
 1,0.13748661,0.18018068\\0.00000004,0.00000003,0.,0.00000007,0.0000001
 1,-0.00000002,0.00000007,-0.00000009,-0.00000003,-0.00000010,-0.000000
 29,0.00000004,-0.00000024,-0.00000006,0.00000008,0.00000010,-0.0000001
 7,-0.00000007,0.00000015,0.00000016,-0.00000003,-0.00000005,0.00000015
 ,0.00000005,-0.00000008,0.00000022,0.00000007,0.00000024,0.00000024,-0
 .00000002,0.00000016,0.,-0.00000009,0.00000026,-0.00000022,-0.00000012
 ,-0.00000030,-0.00000016,0.00000005,-0.00000013,-0.00000043,-0.0000000
 5,-0.00000014,-0.00000009,0.00000002,0.00000002,0.00000020,0.00000003,
 0.00000019,-0.00000008,-0.00000007,-0.00000012,0.00000033,0.00000009,-
 0.00000024,0.00000004,0.00000007,0.00000009,0.00000012,0.\\\@
 Job cpu time:       0 days  2 hours  4 minutes 52.7 seconds.
 File lengths (MBytes):  RWF=  15797 Int=      0 D2E=      0 Chk=     10 Scr=      1
 Normal termination of Gaussian 09 at Fri Nov 15 16:56:29 2019.
