 Entering Gaussian System, Link 0=g09
 Initial command:
 /cm/shared/c3ddb/gaussian/09.d01/g09/l1.exe "/scratch/users/xiaorui/g09/a13977-12955113/Gau-63813.inp" -scrdir="/scratch/users/xiaorui/g09/a13977-12955113/"
 Entering Link 1 = /cm/shared/c3ddb/gaussian/09.d01/g09/l1.exe PID=     63814.
  
 Copyright (c) 1988,1990,1992,1993,1995,1998,2003,2009,2013,
            Gaussian, Inc.  All Rights Reserved.
  
 This is part of the Gaussian(R) 09 program.  It is based on
 the Gaussian(R) 03 system (copyright 2003, Gaussian, Inc.),
 the Gaussian(R) 98 system (copyright 1998, Gaussian, Inc.),
 the Gaussian(R) 94 system (copyright 1995, Gaussian, Inc.),
 the Gaussian 92(TM) system (copyright 1992, Gaussian, Inc.),
 the Gaussian 90(TM) system (copyright 1990, Gaussian, Inc.),
 the Gaussian 88(TM) system (copyright 1988, Gaussian, Inc.),
 the Gaussian 86(TM) system (copyright 1986, Carnegie Mellon
 University), and the Gaussian 82(TM) system (copyright 1983,
 Carnegie Mellon University). Gaussian is a federally registered
 trademark of Gaussian, Inc.
  
 This software contains proprietary and confidential information,
 including trade secrets, belonging to Gaussian, Inc.
  
 This software is provided under written license and may be
 used, copied, transmitted, or stored only in accord with that
 written license.
  
 The following legend is applicable only to US Government
 contracts under FAR:
  
                    RESTRICTED RIGHTS LEGEND
  
 Use, reproduction and disclosure by the US Government is
 subject to restrictions as set forth in subparagraphs (a)
 and (c) of the Commercial Computer Software - Restricted
 Rights clause in FAR 52.227-19.
  
 Gaussian, Inc.
 340 Quinnipiac St., Bldg. 40, Wallingford CT 06492
  
  
 ---------------------------------------------------------------
 Warning -- This program may not be used in any manner that
 competes with the business of Gaussian, Inc. or will provide
 assistance to any competitor of Gaussian, Inc.  The licensee
 of this program is prohibited from giving any competitor of
 Gaussian, Inc. access to this program.  By using this program,
 the user acknowledges that Gaussian, Inc. is engaged in the
 business of creating and licensing software in the field of
 computational chemistry and represents and warrants to the
 licensee that it is not a competitor of Gaussian, Inc. and that
 it will not use this program in any manner prohibited above.
 ---------------------------------------------------------------
  

 Cite this work as:
 Gaussian 09, Revision D.01,
 M. J. Frisch, G. W. Trucks, H. B. Schlegel, G. E. Scuseria, 
 M. A. Robb, J. R. Cheeseman, G. Scalmani, V. Barone, B. Mennucci, 
 G. A. Petersson, H. Nakatsuji, M. Caricato, X. Li, H. P. Hratchian, 
 A. F. Izmaylov, J. Bloino, G. Zheng, J. L. Sonnenberg, M. Hada, 
 M. Ehara, K. Toyota, R. Fukuda, J. Hasegawa, M. Ishida, T. Nakajima, 
 Y. Honda, O. Kitao, H. Nakai, T. Vreven, J. A. Montgomery, Jr., 
 J. E. Peralta, F. Ogliaro, M. Bearpark, J. J. Heyd, E. Brothers, 
 K. N. Kudin, V. N. Staroverov, T. Keith, R. Kobayashi, J. Normand, 
 K. Raghavachari, A. Rendell, J. C. Burant, S. S. Iyengar, J. Tomasi, 
 M. Cossi, N. Rega, J. M. Millam, M. Klene, J. E. Knox, J. B. Cross, 
 V. Bakken, C. Adamo, J. Jaramillo, R. Gomperts, R. E. Stratmann, 
 O. Yazyev, A. J. Austin, R. Cammi, C. Pomelli, J. W. Ochterski, 
 R. L. Martin, K. Morokuma, V. G. Zakrzewski, G. A. Voth, 
 P. Salvador, J. J. Dannenberg, S. Dapprich, A. D. Daniels, 
 O. Farkas, J. B. Foresman, J. V. Ortiz, J. Cioslowski, 
 and D. J. Fox, Gaussian, Inc., Wallingford CT, 2013.
 
 ******************************************
 Gaussian 09:  AS64L-G09RevD.01 24-Apr-2013
                 1-Aug-2020 
 ******************************************
 %chk=check.chk
 %mem=14336mb
 %NProcShared=8
 Will use up to    8 processors via shared memory.
 ----------------------------------------------------------------------
 #P opt=(calcfc, noeigentest, tight) guess=mix cbs-qb3 scf=(tight, dire
 ct) integral=(grid=ultrafine, Acc2E=12) scf=xqc iop(2/9=2000)
 ----------------------------------------------------------------------
 1/7=10,10=4,11=1,14=-1,18=20,19=15,26=4,38=1/1,3;
 2/9=2000,12=2,17=6,18=5,40=1/2;
 3/5=4,6=6,7=700,11=2,16=1,25=1,30=1,71=2,74=-5,75=-5,140=1/1,2,3;
 4/13=-1/1;
 5/5=2,8=3,13=1,32=2,38=5,87=12/2,8;
 8/6=4,10=90,11=11,87=12/1;
 11/6=1,8=1,9=11,15=111,16=1,87=12/1,2,10;
 10/6=1,13=1,87=12/2;
 6/7=2,8=2,9=2,10=2,28=1/1;
 7/10=1,18=20,25=1,87=12/1,2,3,16;
 1/7=10,10=4,11=1,14=-1,18=20,19=15,26=4/3(2);
 2/9=2000/2;
 99//99;
 2/9=2000/2;
 3/5=4,6=6,7=700,11=2,16=1,25=1,30=1,71=1,74=-5,75=-5/1,2,3;
 4/5=5,16=3,69=1/1;
 5/5=2,8=3,13=1,32=2,38=5,87=12/2,8;
 7/87=12/1,2,3,16;
 1/7=10,11=1,14=-1,18=20,19=15,26=4/3(-5);
 2/9=2000/2;
 6/7=2,8=2,9=2,10=2,19=2,28=1/1;
 99/9=1/99;
 Leave Link    1 at Sat Aug  1 02:35:47 2020, MaxMem=  1879048192 cpu:         2.2
 (Enter /cm/shared/c3ddb/gaussian/09.d01/g09/l101.exe)
 ----
 name
 ----
 Symbolic Z-matrix:
 Charge =  0 Multiplicity = 2
 O                     1.83564  -1.13748   0.27392 
 C                     1.38239   0.08703  -0.09938 
 C                     0.03058   0.50099   0.48127 
 C                    -0.05103   0.31586   1.99535 
 O                    -0.07337  -1.02905   2.37671 
 H                     2.17883   0.778     0.27954 
 H                     1.43302   0.21112  -1.20261 
 H                    -0.76514  -0.09918   0.01039 
 H                    -0.15578   1.55378   0.21249 
 H                    -0.97874   0.77538   2.37012 
 H                     0.78749   0.86835   2.47305 
 H                     0.66455  -1.4587    1.92564 
 
 NAtoms=     12 NQM=       12 NQMF=       0 NMMI=      0 NMMIF=      0
                NMic=       0 NMicF=      0.
                    Isotopes and Nuclear Properties:
 (Nuclear quadrupole moments (NQMom) in fm**2, nuclear magnetic moments (NMagM)
  in nuclear magnetons)

  Atom         1           2           3           4           5           6           7           8           9          10
 IAtWgt=          16          12          12          12          16           1           1           1           1           1
 AtmWgt=  15.9949146  12.0000000  12.0000000  12.0000000  15.9949146   1.0078250   1.0078250   1.0078250   1.0078250   1.0078250
 NucSpn=           0           0           0           0           0           1           1           1           1           1
 AtZEff=   0.0000000   0.0000000   0.0000000   0.0000000   0.0000000   0.0000000   0.0000000   0.0000000   0.0000000   0.0000000
 NQMom=    0.0000000   0.0000000   0.0000000   0.0000000   0.0000000   0.0000000   0.0000000   0.0000000   0.0000000   0.0000000
 NMagM=    0.0000000   0.0000000   0.0000000   0.0000000   0.0000000   2.7928460   2.7928460   2.7928460   2.7928460   2.7928460
 AtZNuc=   8.0000000   6.0000000   6.0000000   6.0000000   8.0000000   1.0000000   1.0000000   1.0000000   1.0000000   1.0000000

  Atom        11          12
 IAtWgt=           1           1
 AtmWgt=   1.0078250   1.0078250
 NucSpn=           1           1
 AtZEff=   0.0000000   0.0000000
 NQMom=    0.0000000   0.0000000
 NMagM=    2.7928460   2.7928460
 AtZNuc=   1.0000000   1.0000000
 Leave Link  101 at Sat Aug  1 02:35:47 2020, MaxMem=  1879048192 cpu:         2.9
 (Enter /cm/shared/c3ddb/gaussian/09.d01/g09/l103.exe)

 GradGradGradGradGradGradGradGradGradGradGradGradGradGradGradGradGradGrad
 Berny optimization.
 Initialization pass.
                           ----------------------------
                           !    Initial Parameters    !
                           ! (Angstroms and Degrees)  !
 --------------------------                            --------------------------
 ! Name  Definition              Value          Derivative Info.                !
 --------------------------------------------------------------------------------
 ! R1    R(1,2)                  1.358          calculate D2E/DX2 analytically  !
 ! R2    R(2,3)                  1.5284         calculate D2E/DX2 analytically  !
 ! R3    R(2,6)                  1.1204         calculate D2E/DX2 analytically  !
 ! R4    R(2,7)                  1.1113         calculate D2E/DX2 analytically  !
 ! R5    R(3,4)                  1.5275         calculate D2E/DX2 analytically  !
 ! R6    R(3,8)                  1.1023         calculate D2E/DX2 analytically  !
 ! R7    R(3,9)                  1.1024         calculate D2E/DX2 analytically  !
 ! R8    R(4,5)                  1.3981         calculate D2E/DX2 analytically  !
 ! R9    R(4,10)                 1.101          calculate D2E/DX2 analytically  !
 ! R10   R(4,11)                 1.112          calculate D2E/DX2 analytically  !
 ! R11   R(5,12)                 0.9657         calculate D2E/DX2 analytically  !
 ! A1    A(1,2,3)              115.785          calculate D2E/DX2 analytically  !
 ! A2    A(1,2,6)              103.0535         calculate D2E/DX2 analytically  !
 ! A3    A(1,2,7)              110.9992         calculate D2E/DX2 analytically  !
 ! A4    A(3,2,6)              109.4635         calculate D2E/DX2 analytically  !
 ! A5    A(3,2,7)              112.7797         calculate D2E/DX2 analytically  !
 ! A6    A(6,2,7)              103.5613         calculate D2E/DX2 analytically  !
 ! A7    A(2,3,4)              113.0164         calculate D2E/DX2 analytically  !
 ! A8    A(2,3,8)              109.1906         calculate D2E/DX2 analytically  !
 ! A9    A(2,3,9)              108.394          calculate D2E/DX2 analytically  !
 ! A10   A(4,3,8)              108.5938         calculate D2E/DX2 analytically  !
 ! A11   A(4,3,9)              110.3877         calculate D2E/DX2 analytically  !
 ! A12   A(8,3,9)              107.0839         calculate D2E/DX2 analytically  !
 ! A13   A(3,4,5)              112.8179         calculate D2E/DX2 analytically  !
 ! A14   A(3,4,10)             109.3794         calculate D2E/DX2 analytically  !
 ! A15   A(3,4,11)             108.9836         calculate D2E/DX2 analytically  !
 ! A16   A(5,4,10)             107.1675         calculate D2E/DX2 analytically  !
 ! A17   A(5,4,11)             111.8885         calculate D2E/DX2 analytically  !
 ! A18   A(10,4,11)            106.3664         calculate D2E/DX2 analytically  !
 ! A19   A(4,5,12)             106.7601         calculate D2E/DX2 analytically  !
 ! D1    D(1,2,3,4)             49.8841         calculate D2E/DX2 analytically  !
 ! D2    D(1,2,3,8)            -71.0918         calculate D2E/DX2 analytically  !
 ! D3    D(1,2,3,9)            172.5779         calculate D2E/DX2 analytically  !
 ! D4    D(6,2,3,4)            -66.0136         calculate D2E/DX2 analytically  !
 ! D5    D(6,2,3,8)            173.0105         calculate D2E/DX2 analytically  !
 ! D6    D(6,2,3,9)             56.6802         calculate D2E/DX2 analytically  !
 ! D7    D(7,2,3,4)            179.2688         calculate D2E/DX2 analytically  !
 ! D8    D(7,2,3,8)             58.2929         calculate D2E/DX2 analytically  !
 ! D9    D(7,2,3,9)            -58.0375         calculate D2E/DX2 analytically  !
 ! D10   D(2,3,4,5)            -69.6937         calculate D2E/DX2 analytically  !
 ! D11   D(2,3,4,10)           171.133          calculate D2E/DX2 analytically  !
 ! D12   D(2,3,4,11)            55.2276         calculate D2E/DX2 analytically  !
 ! D13   D(8,3,4,5)             51.6202         calculate D2E/DX2 analytically  !
 ! D14   D(8,3,4,10)           -67.553          calculate D2E/DX2 analytically  !
 ! D15   D(8,3,4,11)           176.5415         calculate D2E/DX2 analytically  !
 ! D16   D(9,3,4,5)            168.7298         calculate D2E/DX2 analytically  !
 ! D17   D(9,3,4,10)            49.5565         calculate D2E/DX2 analytically  !
 ! D18   D(9,3,4,11)           -66.3489         calculate D2E/DX2 analytically  !
 ! D19   D(3,4,5,12)            50.4738         calculate D2E/DX2 analytically  !
 ! D20   D(10,4,5,12)          170.9219         calculate D2E/DX2 analytically  !
 ! D21   D(11,4,5,12)          -72.8499         calculate D2E/DX2 analytically  !
 --------------------------------------------------------------------------------
 Trust Radius=3.00D-01 FncErr=1.00D-07 GrdErr=1.00D-06
 Number of steps in this run=     61 maximum allowed number of steps=    100.
 GradGradGradGradGradGradGradGradGradGradGradGradGradGradGradGradGradGrad

 Leave Link  103 at Sat Aug  1 02:35:48 2020, MaxMem=  1879048192 cpu:         0.1
 (Enter /cm/shared/c3ddb/gaussian/09.d01/g09/l202.exe)
                          Input orientation:                          
 ---------------------------------------------------------------------
 Center     Atomic      Atomic             Coordinates (Angstroms)
 Number     Number       Type             X           Y           Z
 ---------------------------------------------------------------------
      1          8           0        1.835644   -1.137478    0.273920
      2          6           0        1.382392    0.087031   -0.099378
      3          6           0        0.030579    0.500993    0.481270
      4          6           0       -0.051033    0.315861    1.995347
      5          8           0       -0.073370   -1.029052    2.376710
      6          1           0        2.178833    0.777998    0.279542
      7          1           0        1.433018    0.211121   -1.202608
      8          1           0       -0.765138   -0.099177    0.010389
      9          1           0       -0.155783    1.553784    0.212487
     10          1           0       -0.978739    0.775380    2.370119
     11          1           0        0.787485    0.868347    2.473046
     12          1           0        0.664545   -1.458704    1.925642
 ---------------------------------------------------------------------
                    Distance matrix (angstroms):
                    1          2          3          4          5
     1  O    0.000000
     2  C    1.358017   0.000000
     3  C    2.446598   1.528370   0.000000
     4  C    2.938546   2.548518   1.527535   0.000000
     5  O    2.842150   3.081541   2.438142   1.398116   0.000000
     6  H    1.945985   1.120417   2.175413   2.851291   3.568748
     7  H    2.039844   1.111341   2.210499   3.527080   4.076610
     8  H    2.812754   2.158381   1.102315   2.149944   2.634898
     9  H    3.348499   2.148164   1.102426   2.173020   3.370711
    10  H    3.996727   3.485280   2.159111   1.101022   2.018839
    11  H    3.155650   2.753495   2.162181   1.112002   2.085779
    12  H    2.050084   2.646754   2.515658   1.914678   0.965703
                    6          7          8          9         10
     6  H    0.000000
     7  H    1.753385   0.000000
     8  H    3.083641   2.529730   0.000000
     9  H    2.461051   2.515855   1.773256   0.000000
    10  H    3.786922   4.347337   2.525629   2.436913   0.000000
    11  H    2.599129   3.789339   3.067804   2.543562   1.771661
    12  H    3.163155   3.628335   2.749637   3.561309   2.808749
                   11         12
    11  H    0.000000
    12  H    2.393728   0.000000
 Stoichiometry    C3H7O2(2)
 Framework group  C1[X(C3H7O2)]
 Deg. of freedom    30
 Full point group                 C1      NOp   1
 Largest Abelian subgroup         C1      NOp   1
 Largest concise Abelian subgroup C1      NOp   1
                         Standard orientation:                         
 ---------------------------------------------------------------------
 Center     Atomic      Atomic             Coordinates (Angstroms)
 Number     Number       Type             X           Y           Z
 ---------------------------------------------------------------------
      1          8           0        1.337836   -1.031356   -0.002514
      2          6           0        1.341978    0.322060    0.109104
      3          6           0        0.054750    1.028126   -0.315665
      4          6           0       -1.196003    0.421919    0.317970
      5          8           0       -1.493079   -0.850718   -0.178890
      6          1           0        1.513302    0.485134    1.204271
      7          1           0        2.248137    0.757925   -0.364156
      8          1           0       -0.044340    0.972207   -1.412093
      9          1           0        0.140080    2.095201   -0.052199
     10          1           0       -2.063106    1.065390    0.102734
     11          1           0       -1.075691    0.417671    1.423437
     12          1           0       -0.680788   -1.369566   -0.119213
 ---------------------------------------------------------------------
 Rotational constants (GHZ):      8.0841745      4.0369920      2.9684429
 Leave Link  202 at Sat Aug  1 02:35:48 2020, MaxMem=  1879048192 cpu:         1.3
 (Enter /cm/shared/c3ddb/gaussian/09.d01/g09/l301.exe)
 Standard basis: 6-311G(2d,d,p) (5D, 7F)
 Ernie: Thresh=  0.10000D-02 Tol=  0.10000D-05 Strict=F.
 There are   137 symmetry adapted cartesian basis functions of A   symmetry.
 There are   132 symmetry adapted basis functions of A   symmetry.
   132 basis functions,   216 primitive gaussians,   137 cartesian basis functions
    21 alpha electrons       20 beta electrons
       nuclear repulsion energy       185.2596762100 Hartrees.
 IExCor=  402 DFT=T Ex+Corr=B3LYP ExCW=0 ScaHFX=  0.200000
 ScaDFX=  0.800000  0.720000  1.000000  0.810000 ScalE2=  1.000000  1.000000
 IRadAn=      5 IRanWt=     -1 IRanGd=            0 ICorTp=0 IEmpDi=  4
 NAtoms=   12 NActive=   12 NUniq=   12 SFac= 1.00D+00 NAtFMM=   60 NAOKFM=F Big=F
 Integral buffers will be    131072 words long.
 Raffenetti 2 integral format.
 Two-electron integral symmetry is turned on.
 Leave Link  301 at Sat Aug  1 02:35:48 2020, MaxMem=  1879048192 cpu:         0.3
 (Enter /cm/shared/c3ddb/gaussian/09.d01/g09/l302.exe)
 NPDir=0 NMtPBC=     1 NCelOv=     1 NCel=       1 NClECP=     1 NCelD=      1
         NCelK=      1 NCelE2=     1 NClLst=     1 CellRange=     0.0.
 One-electron integrals computed using PRISM.
 NBasis=   132 RedAO= T EigKep=  2.54D-03  NBF=   132
 NBsUse=   132 1.00D-06 EigRej= -1.00D+00 NBFU=   132
 Precomputing XC quadrature grid using
 IXCGrd= 4 IRadAn=           5 IRanWt=          -1 IRanGd=           0 AccXCQ= 0.00D+00.
 Generated NRdTot=       0 NPtTot=           0 NUsed=           0 NTot=          32
 NSgBfM=   137   137   137   137   137 MxSgAt=    12 MxSgA2=    12.
 Leave Link  302 at Sat Aug  1 02:35:49 2020, MaxMem=  1879048192 cpu:         7.6
 (Enter /cm/shared/c3ddb/gaussian/09.d01/g09/l303.exe)
 DipDrv:  MaxL=1.
 Leave Link  303 at Sat Aug  1 02:35:49 2020, MaxMem=  1879048192 cpu:         1.0
 (Enter /cm/shared/c3ddb/gaussian/09.d01/g09/l401.exe)
 ExpMin= 1.03D-01 ExpMax= 8.59D+03 ExpMxC= 1.30D+03 IAcc=3 IRadAn=         5 AccDes= 0.00D+00
 Harris functional with IExCor=  402 and IRadAn=       5 diagonalized for initial guess.
 HarFok:  IExCor=  402 AccDes= 0.00D+00 IRadAn=         5 IDoV= 1 UseB2=F ITyADJ=14
 ICtDFT=  3500011 ScaDFX=  1.000000  1.000000  1.000000  1.000000
 FoFCou: FMM=F IPFlag=           0 FMFlag=      100000 FMFlg1=           0
         NFxFlg=           0 DoJE=T BraDBF=F KetDBF=T FulRan=T
         wScrn=  0.000000 ICntrl=     500 IOpCl=  0 I1Cent=   200000004 NGrid=           0
         NMat0=    1 NMatS0=      1 NMatT0=    0 NMatD0=    1 NMtDS0=    0 NMtDT0=    0
 Petite list used in FoFCou.
 Harris En= -268.978606183366    
 JPrj=0 DoOrth=F DoCkMO=T.
 Mixing orbitals, IMix= 1 IMixAn=  0 NRI=1 NE=   21 Coef=  7.07106781D-01  7.07106781D-01
 Mixing orbitals, IMix= 1 IMixAn=  0 NRI=1 NE=   20 Coef= -7.07106781D-01  7.07106781D-01
 Initial guess <Sx>= 0.0000 <Sy>= 0.0000 <Sz>= 0.5000 <S**2>= 1.0000 S= 0.6180
 Leave Link  401 at Sat Aug  1 02:35:52 2020, MaxMem=  1879048192 cpu:        13.6
 (Enter /cm/shared/c3ddb/gaussian/09.d01/g09/l502.exe)
 UHF open shell SCF:
 Using DIIS extrapolation, IDIIS=  1040.
 Integral symmetry usage will be decided dynamically.
 Keep R1 and R2 ints in memory in canonical form, NReq=78440405.
 IVT=       64376 IEndB=       64376 NGot=  1879048192 MDV=  1801921755
 LenX=  1801921755 LenY=  1801902545
 Requested convergence on RMS density matrix=1.00D-08 within  64 cycles.
 Requested convergence on MAX density matrix=1.00D-06.
 Requested convergence on             energy=1.00D-06.
 No special actions if energy rises.
 FoFCou: FMM=F IPFlag=           0 FMFlag=           0 FMFlg1=           0
         NFxFlg=           0 DoJE=F BraDBF=F KetDBF=F FulRan=T
         wScrn=  0.000000 ICntrl=     600 IOpCl=  0 I1Cent=           0 NGrid=           0
         NMat0=    1 NMatS0=   8778 NMatT0=    0 NMatD0=    1 NMtDS0=    0 NMtDT0=    0
 Symmetry not used in FoFCou.
 Integral accuracy reduced to 1.0D-05 until final iterations.

 Cycle   1  Pass 0  IDiag  1:
 E= -268.671969130927    
 DIIS: error= 3.40D-02 at cycle   1 NSaved=   1.
 NSaved= 1 IEnMin= 1 EnMin= -268.671969130927     IErMin= 1 ErrMin= 3.40D-02
 ErrMax= 3.40D-02  0.00D+00 EMaxC= 1.00D-01 BMatC= 7.64D-01 BMatP= 7.64D-01
 IDIUse=3 WtCom= 6.60D-01 WtEn= 3.40D-01
 Coeff-Com:  0.100D+01
 Coeff-En:   0.100D+01
 Coeff:      0.100D+01
 Gap=     0.046 Goal=   None    Shift=    0.000
 Gap=     0.105 Goal=   None    Shift=    0.000
 GapD=    0.046 DampG=0.250 DampE=0.500 DampFc=0.2500 IDamp=-1.
 Damping current iteration by 2.50D-01
 RMSDP=1.25D-02 MaxDP=3.67D-01              OVMax= 7.99D-01

 Cycle   2  Pass 0  IDiag  1:
 E= -268.750464278250     Delta-E=       -0.078495147323 Rises=F Damp=T
 DIIS: error= 1.68D-02 at cycle   2 NSaved=   2.
 NSaved= 2 IEnMin= 2 EnMin= -268.750464278250     IErMin= 2 ErrMin= 1.68D-02
 ErrMax= 1.68D-02  0.00D+00 EMaxC= 1.00D-01 BMatC= 1.80D-01 BMatP= 7.64D-01
 IDIUse=3 WtCom= 8.32D-01 WtEn= 1.68D-01
 Coeff-Com: -0.179D+00 0.118D+01
 Coeff-En:   0.000D+00 0.100D+01
 Coeff:     -0.149D+00 0.115D+01
 Gap=     0.373 Goal=   None    Shift=    0.000
 Gap=     0.063 Goal=   None    Shift=    0.000
 RMSDP=8.37D-03 MaxDP=2.38D-01 DE=-7.85D-02 OVMax= 9.37D-01

 Cycle   3  Pass 0  IDiag  1:
 E= -268.923978259757     Delta-E=       -0.173513981507 Rises=F Damp=F
 DIIS: error= 2.62D-02 at cycle   3 NSaved=   3.
 NSaved= 3 IEnMin= 3 EnMin= -268.923978259757     IErMin= 2 ErrMin= 1.68D-02
 ErrMax= 2.62D-02  0.00D+00 EMaxC= 1.00D-01 BMatC= 2.31D-01 BMatP= 1.80D-01
 IDIUse=2 WtCom= 0.00D+00 WtEn= 1.00D+00
 Coeff-En:   0.000D+00 0.000D+00 0.100D+01
 Coeff:      0.000D+00 0.000D+00 0.100D+01
 Gap=     0.401 Goal=   None    Shift=    0.000
 Gap=     0.106 Goal=   None    Shift=    0.000
 RMSDP=5.50D-03 MaxDP=1.58D-01 DE=-1.74D-01 OVMax= 9.34D-01

 Cycle   4  Pass 0  IDiag  1:
 E= -268.320186858630     Delta-E=        0.603791401127 Rises=F Damp=F
 DIIS: error= 6.45D-02 at cycle   4 NSaved=   4.
 NSaved= 4 IEnMin= 3 EnMin= -268.923978259757     IErMin= 2 ErrMin= 1.68D-02
 ErrMax= 6.45D-02  0.00D+00 EMaxC= 1.00D-01 BMatC= 2.48D+00 BMatP= 1.80D-01
 IDIUse=2 WtCom= 0.00D+00 WtEn= 1.00D+00
 Coeff-En:   0.000D+00 0.000D+00 0.897D+00 0.103D+00
 Coeff:      0.000D+00 0.000D+00 0.897D+00 0.103D+00
 Gap=     0.298 Goal=   None    Shift=    0.000
 Gap=    -0.027 Goal=   None    Shift=    0.000
 RMSDP=4.60D-03 MaxDP=1.65D-01 DE= 6.04D-01 OVMax= 9.80D-01

 Cycle   5  Pass 0  IDiag  1:
 E= -268.953152925581     Delta-E=       -0.632966066951 Rises=F Damp=F
 DIIS: error= 1.17D-02 at cycle   5 NSaved=   5.
 NSaved= 5 IEnMin= 5 EnMin= -268.953152925581     IErMin= 5 ErrMin= 1.17D-02
 ErrMax= 1.17D-02  0.00D+00 EMaxC= 1.00D-01 BMatC= 1.03D-01 BMatP= 1.80D-01
 IDIUse=3 WtCom= 8.83D-01 WtEn= 1.17D-01
 Coeff-Com: -0.782D-01 0.172D+00 0.424D+00 0.718D-02 0.474D+00
 Coeff-En:   0.000D+00 0.000D+00 0.291D+00 0.000D+00 0.709D+00
 Coeff:     -0.690D-01 0.152D+00 0.409D+00 0.633D-02 0.502D+00
 Gap=     0.315 Goal=   None    Shift=    0.000
 Gap=     0.107 Goal=   None    Shift=    0.000
 RMSDP=9.13D-04 MaxDP=2.30D-02 DE=-6.33D-01 OVMax= 4.78D-02

 Cycle   6  Pass 0  IDiag  1:
 E= -268.972779829918     Delta-E=       -0.019626904337 Rises=F Damp=F
 DIIS: error= 2.74D-03 at cycle   6 NSaved=   6.
 NSaved= 6 IEnMin= 6 EnMin= -268.972779829918     IErMin= 6 ErrMin= 2.74D-03
 ErrMax= 2.74D-03  0.00D+00 EMaxC= 1.00D-01 BMatC= 4.11D-03 BMatP= 1.03D-01
 IDIUse=3 WtCom= 9.73D-01 WtEn= 2.74D-02
 Coeff-Com: -0.222D-01 0.698D-02 0.565D-01 0.120D-01 0.153D+00 0.794D+00
 Coeff-En:   0.000D+00 0.000D+00 0.000D+00 0.000D+00 0.000D+00 0.100D+01
 Coeff:     -0.216D-01 0.679D-02 0.550D-01 0.117D-01 0.148D+00 0.800D+00
 Gap=     0.311 Goal=   None    Shift=    0.000
 Gap=     0.109 Goal=   None    Shift=    0.000
 RMSDP=2.65D-04 MaxDP=6.27D-03 DE=-1.96D-02 OVMax= 2.63D-02

 Cycle   7  Pass 0  IDiag  1:
 E= -268.973820895677     Delta-E=       -0.001041065759 Rises=F Damp=F
 DIIS: error= 1.30D-03 at cycle   7 NSaved=   7.
 NSaved= 7 IEnMin= 7 EnMin= -268.973820895677     IErMin= 7 ErrMin= 1.30D-03
 ErrMax= 1.30D-03  0.00D+00 EMaxC= 1.00D-01 BMatC= 6.68D-04 BMatP= 4.11D-03
 IDIUse=3 WtCom= 9.87D-01 WtEn= 1.30D-02
 Coeff-Com: -0.134D-01 0.155D-01-0.459D-01 0.625D-02-0.313D-01 0.321D+00
 Coeff-Com:  0.748D+00
 Coeff-En:   0.000D+00 0.000D+00 0.000D+00 0.000D+00 0.000D+00 0.000D+00
 Coeff-En:   0.100D+01
 Coeff:     -0.132D-01 0.153D-01-0.453D-01 0.617D-02-0.309D-01 0.316D+00
 Coeff:      0.752D+00
 Gap=     0.307 Goal=   None    Shift=    0.000
 Gap=     0.109 Goal=   None    Shift=    0.000
 RMSDP=1.71D-04 MaxDP=5.30D-03 DE=-1.04D-03 OVMax= 2.25D-02

 Cycle   8  Pass 0  IDiag  1:
 E= -268.974214472650     Delta-E=       -0.000393576973 Rises=F Damp=F
 DIIS: error= 1.34D-03 at cycle   8 NSaved=   8.
 NSaved= 8 IEnMin= 8 EnMin= -268.974214472650     IErMin= 7 ErrMin= 1.30D-03
 ErrMax= 1.34D-03  0.00D+00 EMaxC= 1.00D-01 BMatC= 2.57D-04 BMatP= 6.68D-04
 IDIUse=3 WtCom= 9.87D-01 WtEn= 1.30D-02
 Coeff-Com: -0.109D-01 0.187D-01-0.263D-01 0.224D-02-0.352D-01-0.112D-01
 Coeff-Com:  0.298D+00 0.765D+00
 Coeff-En:   0.000D+00 0.000D+00 0.000D+00 0.000D+00 0.000D+00 0.000D+00
 Coeff-En:   0.000D+00 0.100D+01
 Coeff:     -0.107D-01 0.185D-01-0.259D-01 0.221D-02-0.348D-01-0.110D-01
 Coeff:      0.294D+00 0.768D+00
 Gap=     0.305 Goal=   None    Shift=    0.000
 Gap=     0.109 Goal=   None    Shift=    0.000
 RMSDP=1.49D-04 MaxDP=4.93D-03 DE=-3.94D-04 OVMax= 2.53D-02

 Cycle   9  Pass 0  IDiag  1:
 E= -268.974504311217     Delta-E=       -0.000289838567 Rises=F Damp=F
 DIIS: error= 1.33D-03 at cycle   9 NSaved=   9.
 NSaved= 9 IEnMin= 9 EnMin= -268.974504311217     IErMin= 7 ErrMin= 1.30D-03
 ErrMax= 1.33D-03  0.00D+00 EMaxC= 1.00D-01 BMatC= 1.13D-04 BMatP= 2.57D-04
 IDIUse=3 WtCom= 9.87D-01 WtEn= 1.30D-02
 Coeff-Com: -0.517D-02 0.134D-01 0.676D-02-0.372D-04-0.266D-02-0.949D-01
 Coeff-Com: -0.152D+00-0.106D-01 0.125D+01
 Coeff-En:   0.000D+00 0.000D+00 0.000D+00 0.000D+00 0.000D+00 0.000D+00
 Coeff-En:   0.000D+00 0.000D+00 0.100D+01
 Coeff:     -0.510D-02 0.132D-01 0.668D-02-0.367D-04-0.262D-02-0.937D-01
 Coeff:     -0.150D+00-0.105D-01 0.124D+01
 Gap=     0.303 Goal=   None    Shift=    0.000
 Gap=     0.109 Goal=   None    Shift=    0.000
 RMSDP=2.26D-04 MaxDP=7.12D-03 DE=-2.90D-04 OVMax= 4.17D-02

 Cycle  10  Pass 0  IDiag  1:
 E= -268.974896346087     Delta-E=       -0.000392034870 Rises=F Damp=F
 DIIS: error= 1.29D-03 at cycle  10 NSaved=  10.
 NSaved=10 IEnMin=10 EnMin= -268.974896346087     IErMin=10 ErrMin= 1.29D-03
 ErrMax= 1.29D-03  0.00D+00 EMaxC= 1.00D-01 BMatC= 7.22D-05 BMatP= 1.13D-04
 IDIUse=3 WtCom= 9.87D-01 WtEn= 1.29D-02
 Coeff-Com:  0.421D-03 0.381D-03 0.164D-01 0.435D-05 0.141D-01-0.261D-01
 Coeff-Com: -0.208D+00-0.445D+00 0.722D+00 0.926D+00
 Coeff-En:   0.000D+00 0.000D+00 0.000D+00 0.000D+00 0.000D+00 0.000D+00
 Coeff-En:   0.000D+00 0.000D+00 0.000D+00 0.100D+01
 Coeff:      0.416D-03 0.376D-03 0.162D-01 0.429D-05 0.139D-01-0.258D-01
 Coeff:     -0.205D+00-0.439D+00 0.712D+00 0.927D+00
 Gap=     0.302 Goal=   None    Shift=    0.000
 Gap=     0.109 Goal=   None    Shift=    0.000
 RMSDP=2.29D-04 MaxDP=6.75D-03 DE=-3.92D-04 OVMax= 4.38D-02

 Cycle  11  Pass 0  IDiag  1:
 E= -268.975262564336     Delta-E=       -0.000366218249 Rises=F Damp=F
 DIIS: error= 1.20D-03 at cycle  11 NSaved=  11.
 NSaved=11 IEnMin=11 EnMin= -268.975262564336     IErMin=11 ErrMin= 1.20D-03
 ErrMax= 1.20D-03  0.00D+00 EMaxC= 1.00D-01 BMatC= 5.58D-05 BMatP= 7.22D-05
 IDIUse=3 WtCom= 9.88D-01 WtEn= 1.20D-02
 Coeff-Com:  0.301D-02-0.476D-02 0.112D-01-0.485D-03 0.117D-01 0.122D+00
 Coeff-Com:  0.434D-01-0.478D+00-0.113D+01 0.653D+00 0.177D+01
 Coeff-En:   0.000D+00 0.000D+00 0.000D+00 0.000D+00 0.000D+00 0.000D+00
 Coeff-En:   0.000D+00 0.000D+00 0.000D+00 0.000D+00 0.100D+01
 Coeff:      0.297D-02-0.470D-02 0.111D-01-0.480D-03 0.115D-01 0.121D+00
 Coeff:      0.428D-01-0.472D+00-0.112D+01 0.645D+00 0.176D+01
 Gap=     0.300 Goal=   None    Shift=    0.000
 Gap=     0.108 Goal=   None    Shift=    0.000
 RMSDP=5.53D-04 MaxDP=1.78D-02 DE=-3.66D-04 OVMax= 1.08D-01

 Cycle  12  Pass 0  IDiag  1:
 E= -268.976008503354     Delta-E=       -0.000745939018 Rises=F Damp=F
 DIIS: error= 9.44D-04 at cycle  12 NSaved=  12.
 NSaved=12 IEnMin=12 EnMin= -268.976008503354     IErMin=12 ErrMin= 9.44D-04
 ErrMax= 9.44D-04  0.00D+00 EMaxC= 1.00D-01 BMatC= 4.30D-05 BMatP= 5.58D-05
 IDIUse=3 WtCom= 9.91D-01 WtEn= 9.44D-03
 Coeff-Com: -0.388D-03 0.117D-02 0.861D-02-0.312D-03 0.852D-02 0.555D-01
 Coeff-Com:  0.488D-01-0.124D+00-0.416D+00 0.705D-01 0.617D+00 0.730D+00
 Coeff-En:   0.000D+00 0.000D+00 0.000D+00 0.000D+00 0.000D+00 0.000D+00
 Coeff-En:   0.000D+00 0.000D+00 0.000D+00 0.000D+00 0.000D+00 0.100D+01
 Coeff:     -0.384D-03 0.116D-02 0.853D-02-0.309D-03 0.844D-02 0.550D-01
 Coeff:      0.484D-01-0.123D+00-0.412D+00 0.699D-01 0.612D+00 0.733D+00
 Gap=     0.300 Goal=   None    Shift=    0.000
 Gap=     0.108 Goal=   None    Shift=    0.000
 RMSDP=8.37D-05 MaxDP=2.85D-03 DE=-7.46D-04 OVMax= 1.64D-02

 Cycle  13  Pass 0  IDiag  1:
 E= -268.976106339768     Delta-E=       -0.000097836414 Rises=F Damp=F
 DIIS: error= 8.70D-04 at cycle  13 NSaved=  13.
 NSaved=13 IEnMin=13 EnMin= -268.976106339768     IErMin=13 ErrMin= 8.70D-04
 ErrMax= 8.70D-04  0.00D+00 EMaxC= 1.00D-01 BMatC= 2.78D-05 BMatP= 4.30D-05
 IDIUse=3 WtCom= 9.91D-01 WtEn= 8.70D-03
 Coeff-Com: -0.128D-02 0.416D-02 0.347D-02 0.433D-03-0.439D-03-0.309D-01
 Coeff-Com: -0.406D-01 0.365D-01 0.448D+00-0.678D+00-0.952D+00-0.739D+00
 Coeff-Com:  0.295D+01
 Coeff-En:   0.000D+00 0.000D+00 0.000D+00 0.000D+00 0.000D+00 0.000D+00
 Coeff-En:   0.000D+00 0.000D+00 0.000D+00 0.000D+00 0.000D+00 0.000D+00
 Coeff-En:   0.100D+01
 Coeff:     -0.127D-02 0.412D-02 0.344D-02 0.429D-03-0.436D-03-0.306D-01
 Coeff:     -0.402D-01 0.362D-01 0.444D+00-0.673D+00-0.944D+00-0.733D+00
 Coeff:      0.293D+01
 Gap=     0.298 Goal=   None    Shift=    0.000
 Gap=     0.108 Goal=   None    Shift=    0.000
 RMSDP=7.78D-04 MaxDP=2.93D-02 DE=-9.78D-05 OVMax= 1.53D-01

 Cycle  14  Pass 0  IDiag  1:
 E= -268.976702234977     Delta-E=       -0.000595895210 Rises=F Damp=F
 DIIS: error= 5.72D-04 at cycle  14 NSaved=  14.
 NSaved=14 IEnMin=14 EnMin= -268.976702234977     IErMin=14 ErrMin= 5.72D-04
 ErrMax= 5.72D-04  0.00D+00 EMaxC= 1.00D-01 BMatC= 7.84D-05 BMatP= 2.78D-05
 IDIUse=3 WtCom= 9.91D-01 WtEn= 8.70D-03
 Coeff-Com:  0.131D-03 0.343D-03 0.316D-02 0.131D-03 0.416D-02-0.401D-01
 Coeff-Com: -0.121D+00-0.230D+00 0.436D+00 0.416D+00-0.231D+00-0.255D+01
 Coeff-Com:  0.245D+01 0.860D+00
 Coeff-En:   0.000D+00 0.000D+00 0.000D+00 0.000D+00 0.000D+00 0.000D+00
 Coeff-En:   0.000D+00 0.000D+00 0.000D+00 0.000D+00 0.000D+00 0.000D+00
 Coeff-En:   0.000D+00 0.100D+01
 Coeff:      0.130D-03 0.340D-03 0.314D-02 0.130D-03 0.412D-02-0.397D-01
 Coeff:     -0.120D+00-0.228D+00 0.432D+00 0.412D+00-0.229D+00-0.253D+01
 Coeff:      0.243D+01 0.862D+00
 Gap=     0.299 Goal=   None    Shift=    0.000
 Gap=     0.107 Goal=   None    Shift=    0.000
 RMSDP=6.95D-05 MaxDP=1.80D-03 DE=-5.96D-04 OVMax= 7.29D-03

 Cycle  15  Pass 0  IDiag  1:
 E= -268.976710847050     Delta-E=       -0.000008612073 Rises=F Damp=F
 DIIS: error= 4.00D-04 at cycle  15 NSaved=  15.
 NSaved=15 IEnMin=15 EnMin= -268.976710847050     IErMin=15 ErrMin= 4.00D-04
 ErrMax= 4.00D-04  0.00D+00 EMaxC= 1.00D-01 BMatC= 6.71D-06 BMatP= 2.78D-05
 IDIUse=3 WtCom= 9.96D-01 WtEn= 4.00D-03
 Coeff-Com:  0.707D-03-0.113D-02 0.818D-03 0.331D-03 0.892D-03 0.149D-01
 Coeff-Com: -0.288D-01-0.124D+00-0.739D-01 0.143D-01 0.447D-01-0.102D+01
 Coeff-Com:  0.823D+00 0.233D+00 0.112D+01
 Coeff-En:   0.000D+00 0.000D+00 0.000D+00 0.000D+00 0.000D+00 0.000D+00
 Coeff-En:   0.000D+00 0.000D+00 0.000D+00 0.000D+00 0.000D+00 0.000D+00
 Coeff-En:   0.000D+00 0.000D+00 0.100D+01
 Coeff:      0.705D-03-0.112D-02 0.815D-03 0.330D-03 0.889D-03 0.149D-01
 Coeff:     -0.287D-01-0.124D+00-0.736D-01 0.142D-01 0.445D-01-0.102D+01
 Coeff:      0.820D+00 0.232D+00 0.112D+01
 Gap=     0.297 Goal=   None    Shift=    0.000
 Gap=     0.110 Goal=   None    Shift=    0.000
 RMSDP=4.80D-04 MaxDP=1.88D-02 DE=-8.61D-06 OVMax= 9.35D-02

 Cycle  16  Pass 0  IDiag  1:
 E= -268.976828369073     Delta-E=       -0.000117522023 Rises=F Damp=F
 DIIS: error= 4.90D-04 at cycle  16 NSaved=  16.
 NSaved=16 IEnMin=16 EnMin= -268.976828369073     IErMin=15 ErrMin= 4.00D-04
 ErrMax= 4.90D-04  0.00D+00 EMaxC= 1.00D-01 BMatC= 7.21D-05 BMatP= 6.71D-06
 IDIUse=3 WtCom= 9.96D-01 WtEn= 4.00D-03
 Coeff-Com:  0.525D-03-0.722D-03-0.499D-04 0.114D-03-0.145D-03 0.203D-01
 Coeff-Com:  0.845D-02-0.330D-01-0.163D+00-0.709D-01 0.118D+00-0.257D+00
 Coeff-Com:  0.140D+00-0.280D+00 0.117D+01 0.350D+00
 Coeff-En:   0.000D+00 0.000D+00 0.000D+00 0.000D+00 0.000D+00 0.000D+00
 Coeff-En:   0.000D+00 0.000D+00 0.000D+00 0.000D+00 0.000D+00 0.000D+00
 Coeff-En:   0.000D+00 0.000D+00 0.000D+00 0.100D+01
 Coeff:      0.523D-03-0.719D-03-0.497D-04 0.113D-03-0.144D-03 0.202D-01
 Coeff:      0.841D-02-0.329D-01-0.162D+00-0.706D-01 0.117D+00-0.256D+00
 Coeff:      0.140D+00-0.279D+00 0.116D+01 0.352D+00
 Gap=     0.298 Goal=   None    Shift=    0.000
 Gap=     0.110 Goal=   None    Shift=    0.000
 RMSDP=2.15D-05 MaxDP=6.02D-04 DE=-1.18D-04 OVMax= 1.77D-03

 Cycle  17  Pass 0  IDiag  1:
 E= -268.976842449304     Delta-E=       -0.000014080231 Rises=F Damp=F
 DIIS: error= 3.27D-04 at cycle  17 NSaved=  17.
 NSaved=17 IEnMin=17 EnMin= -268.976842449304     IErMin=17 ErrMin= 3.27D-04
 ErrMax= 3.27D-04  0.00D+00 EMaxC= 1.00D-01 BMatC= 3.05D-05 BMatP= 6.71D-06
 IDIUse=3 WtCom= 9.96D-01 WtEn= 4.00D-03
 Coeff-Com: -0.135D-03 0.991D-04 0.338D-03-0.300D-04 0.873D-04 0.723D-02
 Coeff-Com:  0.152D-01 0.298D-01-0.259D-01-0.118D+00-0.330D-01 0.322D+00
 Coeff-Com: -0.190D+00-0.365D+00 0.241D+00-0.133D+01 0.245D+01
 Coeff-En:   0.000D+00 0.000D+00 0.000D+00 0.000D+00 0.000D+00 0.000D+00
 Coeff-En:   0.000D+00 0.000D+00 0.000D+00 0.000D+00 0.000D+00 0.000D+00
 Coeff-En:   0.000D+00 0.000D+00 0.000D+00 0.000D+00 0.100D+01
 Coeff:     -0.135D-03 0.987D-04 0.336D-03-0.299D-04 0.869D-04 0.720D-02
 Coeff:      0.152D-01 0.297D-01-0.258D-01-0.118D+00-0.328D-01 0.320D+00
 Coeff:     -0.190D+00-0.363D+00 0.240D+00-0.132D+01 0.244D+01
 Gap=     0.298 Goal=   None    Shift=    0.000
 Gap=     0.107 Goal=   None    Shift=    0.000
 RMSDP=7.77D-05 MaxDP=2.90D-03 DE=-1.41D-05 OVMax= 1.47D-02

 Cycle  18  Pass 0  IDiag  1:
 E= -268.976857649906     Delta-E=       -0.000015200602 Rises=F Damp=F
 DIIS: error= 7.88D-05 at cycle  18 NSaved=  18.
 NSaved=18 IEnMin=18 EnMin= -268.976857649906     IErMin=18 ErrMin= 7.88D-05
 ErrMax= 7.88D-05  0.00D+00 EMaxC= 1.00D-01 BMatC= 1.88D-06 BMatP= 6.71D-06
 IDIUse=1 WtCom= 1.00D+00 WtEn= 0.00D+00
 Coeff-Com: -0.975D-04 0.137D-03 0.123D-03 0.132D-04 0.271D-04-0.495D-03
 Coeff-Com: -0.179D-02 0.149D-02 0.169D-01-0.179D-01-0.364D-01 0.916D-02
 Coeff-Com:  0.186D-01-0.568D-02-0.153D-01-0.498D+00 0.498D+00 0.103D+01
 Coeff:     -0.975D-04 0.137D-03 0.123D-03 0.132D-04 0.271D-04-0.495D-03
 Coeff:     -0.179D-02 0.149D-02 0.169D-01-0.179D-01-0.364D-01 0.916D-02
 Coeff:      0.186D-01-0.568D-02-0.153D-01-0.498D+00 0.498D+00 0.103D+01
 Gap=     0.298 Goal=   None    Shift=    0.000
 Gap=     0.107 Goal=   None    Shift=    0.000
 RMSDP=3.65D-05 MaxDP=1.44D-03 DE=-1.52D-05 OVMax= 7.21D-03

 Cycle  19  Pass 0  IDiag  1:
 E= -268.976858906320     Delta-E=       -0.000001256414 Rises=F Damp=F
 DIIS: error= 3.91D-05 at cycle  19 NSaved=  19.
 NSaved=19 IEnMin=19 EnMin= -268.976858906320     IErMin=19 ErrMin= 3.91D-05
 ErrMax= 3.91D-05  0.00D+00 EMaxC= 1.00D-01 BMatC= 4.01D-07 BMatP= 1.88D-06
 IDIUse=1 WtCom= 1.00D+00 WtEn= 0.00D+00
 Coeff-Com: -0.514D-05 0.708D-05-0.598D-04 0.647D-05-0.442D-04-0.428D-03
 Coeff-Com: -0.863D-03-0.772D-03 0.320D-02-0.667D-03-0.695D-02-0.179D-01
 Coeff-Com:  0.292D-01 0.228D-01-0.250D-01-0.106D+00-0.526D-01 0.381D+00
 Coeff-Com:  0.775D+00
 Coeff:     -0.514D-05 0.708D-05-0.598D-04 0.647D-05-0.442D-04-0.428D-03
 Coeff:     -0.863D-03-0.772D-03 0.320D-02-0.667D-03-0.695D-02-0.179D-01
 Coeff:      0.292D-01 0.228D-01-0.250D-01-0.106D+00-0.526D-01 0.381D+00
 Coeff:      0.775D+00
 Gap=     0.298 Goal=   None    Shift=    0.000
 Gap=     0.107 Goal=   None    Shift=    0.000
 RMSDP=4.93D-06 MaxDP=1.38D-04 DE=-1.26D-06 OVMax= 7.24D-04

 Initial convergence to 1.0D-05 achieved.  Increase integral accuracy.
 Cycle  20  Pass 1  IDiag  1:
 E= -268.976866298669     Delta-E=       -0.000007392349 Rises=F Damp=F
 DIIS: error= 5.92D-06 at cycle   1 NSaved=   1.
 NSaved= 1 IEnMin= 1 EnMin= -268.976866298669     IErMin= 1 ErrMin= 5.92D-06
 ErrMax= 5.92D-06  0.00D+00 EMaxC= 1.00D-01 BMatC= 1.35D-08 BMatP= 1.35D-08
 IDIUse=1 WtCom= 1.00D+00 WtEn= 0.00D+00
 Coeff-Com:  0.100D+01
 Coeff:      0.100D+01
 Gap=     0.298 Goal=   None    Shift=    0.000
 Gap=     0.106 Goal=   None    Shift=    0.000
 RMSDP=4.93D-06 MaxDP=1.38D-04 DE=-7.39D-06 OVMax= 4.10D-05

 Cycle  21  Pass 1  IDiag  1:
 E= -268.976866303210     Delta-E=       -0.000000004541 Rises=F Damp=F
 DIIS: error= 1.58D-06 at cycle   2 NSaved=   2.
 NSaved= 2 IEnMin= 2 EnMin= -268.976866303210     IErMin= 2 ErrMin= 1.58D-06
 ErrMax= 1.58D-06  0.00D+00 EMaxC= 1.00D-01 BMatC= 2.80D-09 BMatP= 1.35D-08
 IDIUse=1 WtCom= 1.00D+00 WtEn= 0.00D+00
 Coeff-Com:  0.208D+00 0.792D+00
 Coeff:      0.208D+00 0.792D+00
 Gap=     0.298 Goal=   None    Shift=    0.000
 Gap=     0.106 Goal=   None    Shift=    0.000
 RMSDP=2.94D-07 MaxDP=4.99D-06 DE=-4.54D-09 OVMax= 1.52D-05

 Cycle  22  Pass 1  IDiag  1:
 E= -268.976866303726     Delta-E=       -0.000000000516 Rises=F Damp=F
 DIIS: error= 1.07D-06 at cycle   3 NSaved=   3.
 NSaved= 3 IEnMin= 3 EnMin= -268.976866303726     IErMin= 3 ErrMin= 1.07D-06
 ErrMax= 1.07D-06  0.00D+00 EMaxC= 1.00D-01 BMatC= 1.35D-09 BMatP= 2.80D-09
 IDIUse=1 WtCom= 1.00D+00 WtEn= 0.00D+00
 Coeff-Com: -0.416D-01 0.399D+00 0.643D+00
 Coeff:     -0.416D-01 0.399D+00 0.643D+00
 Gap=     0.298 Goal=   None    Shift=    0.000
 Gap=     0.106 Goal=   None    Shift=    0.000
 RMSDP=1.45D-07 MaxDP=2.71D-06 DE=-5.16D-10 OVMax= 1.47D-05

 Cycle  23  Pass 1  IDiag  1:
 E= -268.976866304078     Delta-E=       -0.000000000352 Rises=F Damp=F
 DIIS: error= 7.95D-07 at cycle   4 NSaved=   4.
 NSaved= 4 IEnMin= 4 EnMin= -268.976866304078     IErMin= 4 ErrMin= 7.95D-07
 ErrMax= 7.95D-07  0.00D+00 EMaxC= 1.00D-01 BMatC= 1.06D-10 BMatP= 1.35D-09
 IDIUse=1 WtCom= 1.00D+00 WtEn= 0.00D+00
 Coeff-Com: -0.309D-01 0.956D-01 0.266D+00 0.670D+00
 Coeff:     -0.309D-01 0.956D-01 0.266D+00 0.670D+00
 Gap=     0.298 Goal=   None    Shift=    0.000
 Gap=     0.106 Goal=   None    Shift=    0.000
 RMSDP=6.69D-08 MaxDP=2.26D-06 DE=-3.52D-10 OVMax= 1.16D-05

 Cycle  24  Pass 1  IDiag  1:
 E= -268.976866304152     Delta-E=       -0.000000000074 Rises=F Damp=F
 DIIS: error= 7.40D-07 at cycle   5 NSaved=   5.
 NSaved= 5 IEnMin= 5 EnMin= -268.976866304152     IErMin= 5 ErrMin= 7.40D-07
 ErrMax= 7.40D-07  0.00D+00 EMaxC= 1.00D-01 BMatC= 3.51D-11 BMatP= 1.06D-10
 IDIUse=1 WtCom= 1.00D+00 WtEn= 0.00D+00
 Coeff-Com: -0.127D-01 0.609D-02 0.705D-01 0.340D+00 0.596D+00
 Coeff:     -0.127D-01 0.609D-02 0.705D-01 0.340D+00 0.596D+00
 Gap=     0.298 Goal=   None    Shift=    0.000
 Gap=     0.106 Goal=   None    Shift=    0.000
 RMSDP=5.21D-08 MaxDP=2.00D-06 DE=-7.41D-11 OVMax= 1.00D-05

 Cycle  25  Pass 1  IDiag  1:
 E= -268.976866304200     Delta-E=       -0.000000000048 Rises=F Damp=F
 DIIS: error= 7.15D-07 at cycle   6 NSaved=   6.
 NSaved= 6 IEnMin= 6 EnMin= -268.976866304200     IErMin= 6 ErrMin= 7.15D-07
 ErrMax= 7.15D-07  0.00D+00 EMaxC= 1.00D-01 BMatC= 1.82D-11 BMatP= 3.51D-11
 IDIUse=1 WtCom= 1.00D+00 WtEn= 0.00D+00
 Coeff-Com:  0.419D-02-0.278D-01-0.462D-01-0.641D-01 0.167D+00 0.966D+00
 Coeff:      0.419D-02-0.278D-01-0.462D-01-0.641D-01 0.167D+00 0.966D+00
 Gap=     0.298 Goal=   None    Shift=    0.000
 Gap=     0.106 Goal=   None    Shift=    0.000
 RMSDP=8.26D-08 MaxDP=3.25D-06 DE=-4.84D-11 OVMax= 1.64D-05

 Cycle  26  Pass 1  IDiag  1:
 E= -268.976866304272     Delta-E=       -0.000000000072 Rises=F Damp=F
 DIIS: error= 6.50D-07 at cycle   7 NSaved=   7.
 NSaved= 7 IEnMin= 7 EnMin= -268.976866304272     IErMin= 7 ErrMin= 6.50D-07
 ErrMax= 6.50D-07  0.00D+00 EMaxC= 1.00D-01 BMatC= 1.50D-11 BMatP= 1.82D-11
 IDIUse=1 WtCom= 1.00D+00 WtEn= 0.00D+00
 Coeff-Com:  0.866D-02 0.192D-01-0.213D-01-0.375D+00-0.891D+00-0.356D+00
 Coeff-Com:  0.262D+01
 Coeff:      0.866D-02 0.192D-01-0.213D-01-0.375D+00-0.891D+00-0.356D+00
 Coeff:      0.262D+01
 Gap=     0.298 Goal=   None    Shift=    0.000
 Gap=     0.106 Goal=   None    Shift=    0.000
 RMSDP=2.66D-07 MaxDP=1.05D-05 DE=-7.21D-11 OVMax= 5.26D-05

 Cycle  27  Pass 1  IDiag  1:
 E= -268.976866304460     Delta-E=       -0.000000000187 Rises=F Damp=F
 DIIS: error= 4.64D-07 at cycle   8 NSaved=   8.
 NSaved= 8 IEnMin= 8 EnMin= -268.976866304460     IErMin= 8 ErrMin= 4.64D-07
 ErrMax= 4.64D-07  0.00D+00 EMaxC= 1.00D-01 BMatC= 9.15D-12 BMatP= 1.50D-11
 IDIUse=1 WtCom= 1.00D+00 WtEn= 0.00D+00
 Coeff-Com: -0.160D-02 0.574D-01 0.729D-01-0.126D+00-0.636D+00-0.150D+01
 Coeff-Com:  0.156D+01 0.158D+01
 Coeff:     -0.160D-02 0.574D-01 0.729D-01-0.126D+00-0.636D+00-0.150D+01
 Coeff:      0.156D+01 0.158D+01
 Gap=     0.298 Goal=   None    Shift=    0.000
 Gap=     0.106 Goal=   None    Shift=    0.000
 RMSDP=3.72D-07 MaxDP=1.47D-05 DE=-1.87D-10 OVMax= 7.36D-05

 Cycle  28  Pass 1  IDiag  1:
 E= -268.976866304620     Delta-E=       -0.000000000161 Rises=F Damp=F
 DIIS: error= 2.14D-07 at cycle   9 NSaved=   9.
 NSaved= 9 IEnMin= 9 EnMin= -268.976866304620     IErMin= 9 ErrMin= 2.14D-07
 ErrMax= 2.14D-07  0.00D+00 EMaxC= 1.00D-01 BMatC= 4.59D-12 BMatP= 9.15D-12
 IDIUse=1 WtCom= 1.00D+00 WtEn= 0.00D+00
 Coeff-Com: -0.549D-02 0.417D-01 0.675D-01 0.201D-01-0.148D+00-0.105D+01
 Coeff-Com:  0.120D+00 0.119D+01 0.759D+00
 Coeff:     -0.549D-02 0.417D-01 0.675D-01 0.201D-01-0.148D+00-0.105D+01
 Coeff:      0.120D+00 0.119D+01 0.759D+00
 Gap=     0.298 Goal=   None    Shift=    0.000
 Gap=     0.106 Goal=   None    Shift=    0.000
 RMSDP=2.41D-07 MaxDP=9.54D-06 DE=-1.61D-10 OVMax= 4.78D-05

 Cycle  29  Pass 1  IDiag  1:
 E= -268.976866304659     Delta-E=       -0.000000000038 Rises=F Damp=F
 DIIS: error= 4.00D-08 at cycle  10 NSaved=  10.
 NSaved=10 IEnMin=10 EnMin= -268.976866304659     IErMin=10 ErrMin= 4.00D-08
 ErrMax= 4.00D-08  0.00D+00 EMaxC= 1.00D-01 BMatC= 3.94D-13 BMatP= 4.59D-12
 IDIUse=1 WtCom= 1.00D+00 WtEn= 0.00D+00
 Coeff-Com: -0.138D-02 0.201D-02 0.600D-02 0.251D-01 0.778D-01-0.993D-02
 Coeff-Com: -0.225D+00-0.289D-01 0.242D+00 0.913D+00
 Coeff:     -0.138D-02 0.201D-02 0.600D-02 0.251D-01 0.778D-01-0.993D-02
 Coeff:     -0.225D+00-0.289D-01 0.242D+00 0.913D+00
 Gap=     0.298 Goal=   None    Shift=    0.000
 Gap=     0.106 Goal=   None    Shift=    0.000
 RMSDP=5.45D-08 MaxDP=2.15D-06 DE=-3.81D-11 OVMax= 1.08D-05

 Cycle  30  Pass 1  IDiag  1:
 E= -268.976866304660     Delta-E=       -0.000000000002 Rises=F Damp=F
 DIIS: error= 9.85D-09 at cycle  11 NSaved=  11.
 NSaved=11 IEnMin=11 EnMin= -268.976866304660     IErMin=11 ErrMin= 9.85D-09
 ErrMax= 9.85D-09  0.00D+00 EMaxC= 1.00D-01 BMatC= 4.52D-14 BMatP= 3.94D-13
 IDIUse=1 WtCom= 1.00D+00 WtEn= 0.00D+00
 Coeff-Com:  0.165D-03-0.390D-02-0.583D-02 0.214D-02 0.391D-01 0.114D+00
 Coeff-Com: -0.749D-01-0.155D+00 0.556D-02 0.336D+00 0.743D+00
 Coeff:      0.165D-03-0.390D-02-0.583D-02 0.214D-02 0.391D-01 0.114D+00
 Coeff:     -0.749D-01-0.155D+00 0.556D-02 0.336D+00 0.743D+00
 Gap=     0.298 Goal=   None    Shift=    0.000
 Gap=     0.106 Goal=   None    Shift=    0.000
 RMSDP=5.62D-09 MaxDP=2.19D-07 DE=-1.71D-12 OVMax= 1.11D-06

 SCF Done:  E(UB3LYP) =  -268.976866305     A.U. after   30 cycles
            NFock= 30  Conv=0.56D-08     -V/T= 2.0033
 <Sx>= 0.0000 <Sy>= 0.0000 <Sz>= 0.5000 <S**2>= 0.7536 S= 0.5018
 <L.S>= 0.000000000000E+00
 KE= 2.680936584206D+02 PE=-1.001159999777D+03 EE= 2.788297988415D+02
 Annihilation of the first spin contaminant:
 S**2 before annihilation     0.7536,   after     0.7500
 Leave Link  502 at Sat Aug  1 02:37:38 2020, MaxMem=  1879048192 cpu:       580.6
 (Enter /cm/shared/c3ddb/gaussian/09.d01/g09/l508.exe)
 QCSCF skips out because SCF is already converged.
 Leave Link  508 at Sat Aug  1 02:37:38 2020, MaxMem=  1879048192 cpu:         0.0
 (Enter /cm/shared/c3ddb/gaussian/09.d01/g09/l801.exe)
 DoSCS=F DFT=T ScalE2(SS,OS)=  1.000000  1.000000
 Range of M.O.s used for correlation:     1   132
 NBasis=   132 NAE=    21 NBE=    20 NFC=     0 NFV=     0
 NROrb=    132 NOA=    21 NOB=    20 NVA=   111 NVB=   112
 Leave Link  801 at Sat Aug  1 02:37:38 2020, MaxMem=  1879048192 cpu:         0.3
 (Enter /cm/shared/c3ddb/gaussian/09.d01/g09/l1101.exe)
 Using compressed storage, NAtomX=    12.
 Will process     13 centers per pass.
 Leave Link 1101 at Sat Aug  1 02:37:40 2020, MaxMem=  1879048192 cpu:        10.9
 (Enter /cm/shared/c3ddb/gaussian/09.d01/g09/l1102.exe)
 Symmetrizing basis deriv contribution to polar:
 IMax=3 JMax=2 DiffMx= 0.00D+00
 Leave Link 1102 at Sat Aug  1 02:37:40 2020, MaxMem=  1879048192 cpu:         0.7
 (Enter /cm/shared/c3ddb/gaussian/09.d01/g09/l1110.exe)
 Forming Gx(P) for the SCF density, NAtomX=    12.
 Integral derivatives from FoFJK, PRISM(SPDF).
 Do as many integral derivatives as possible in FoFJK.
 G2DrvN: MDV=    1879047992.
 G2DrvN: will do    13 centers at a time, making    1 passes.
 Calling FoFCou, ICntrl=  3107 FMM=F I1Cent=   0 AccDes= 1.00D-12.
 FoFJK:  IHMeth= 1 ICntrl=    3107 DoSepK=F KAlg= 0 I1Cent=   0 FoldK=F
 IRaf=         0 NMat=   1 IRICut=       1 DoRegI=T DoRafI=F ISym2E= 0.
 FoFCou: FMM=F IPFlag=           0 FMFlag=      100000 FMFlg1=           0
         NFxFlg=           0 DoJE=F BraDBF=F KetDBF=F FulRan=T
         wScrn=  0.000000 ICntrl=    3107 IOpCl=  1 I1Cent=           0 NGrid=           0
         NMat0=    1 NMatS0=      1 NMatT0=    0 NMatD0=    1 NMtDS0=    0 NMtDT0=    0
 Symmetry not used in FoFCou.
 End of G2Drv F.D. properties file   721 does not exist.
 End of G2Drv F.D. properties file   722 does not exist.
 End of G2Drv F.D. properties file   788 does not exist.
 Leave Link 1110 at Sat Aug  1 02:38:56 2020, MaxMem=  1879048192 cpu:       524.8
 (Enter /cm/shared/c3ddb/gaussian/09.d01/g09/l1002.exe)
 Minotr:  UHF open shell wavefunction.
          IDoAtm=111111111111
          Direct CPHF calculation.
          Differentiating once with respect to nuclear coordinates.
          Requested convergence is 1.0D-08 RMS, and 1.0D-07 maximum.
          Secondary convergence is 1.0D-12 RMS, and 1.0D-12 maximum.
          NewPWx=T KeepS1=F KeepF1=F KeepIn=T MapXYZ=F SortEE=F KeepMc=T.
          MDV=    1879047804 using IRadAn=       1.
 Generate precomputed XC quadrature information.
 Keep R1 and R2 ints in memory in canonical form, NReq=78381335.
 FoFCou: FMM=F IPFlag=           0 FMFlag=           0 FMFlg1=           0
         NFxFlg=           0 DoJE=F BraDBF=F KetDBF=F FulRan=T
         wScrn=  0.000000 ICntrl=     600 IOpCl=  0 I1Cent=           0 NGrid=           0
         NMat0=    1 NMatS0=   8778 NMatT0=    0 NMatD0=    1 NMtDS0=    0 NMtDT0=    0
 Symmetry not used in FoFCou.
          Solving linear equations simultaneously, MaxMat=       0.
          There are    39 degrees of freedom in the 1st order CPHF.  IDoFFX=6 NUNeed=     0.
     33 vectors produced by pass  0 Test12= 1.17D-14 2.56D-09 XBig12= 1.90D-01 1.92D-01.
 AX will form    33 AO Fock derivatives at one time.
     33 vectors produced by pass  1 Test12= 1.17D-14 2.56D-09 XBig12= 1.52D-02 4.10D-02.
     33 vectors produced by pass  2 Test12= 1.17D-14 2.56D-09 XBig12= 4.41D-04 4.02D-03.
     33 vectors produced by pass  3 Test12= 1.17D-14 2.56D-09 XBig12= 3.29D-06 2.09D-04.
     33 vectors produced by pass  4 Test12= 1.17D-14 2.56D-09 XBig12= 2.75D-08 2.25D-05.
     33 vectors produced by pass  5 Test12= 1.17D-14 2.56D-09 XBig12= 1.52D-10 1.68D-06.
     18 vectors produced by pass  6 Test12= 1.17D-14 2.56D-09 XBig12= 4.57D-13 7.42D-08.
      1 vectors produced by pass  7 Test12= 1.17D-14 2.56D-09 XBig12= 1.58D-15 3.58D-09.
 InvSVY:  IOpt=1 It=  1 EMax= 2.11D-15
 Solved reduced A of dimension   217 with    33 vectors.
 End of Minotr F.D. properties file   721 does not exist.
 End of Minotr F.D. properties file   722 does not exist.
 End of Minotr F.D. properties file   788 does not exist.
 Leave Link 1002 at Sat Aug  1 02:40:45 2020, MaxMem=  1879048192 cpu:       760.6
 (Enter /cm/shared/c3ddb/gaussian/09.d01/g09/l601.exe)
 Copying SCF densities to generalized density rwf, IOpCl= 1 IROHF=0.

 **********************************************************************

            Population analysis using the SCF density.

 **********************************************************************

 Orbital symmetries:
 Alpha Orbitals:
       Occupied  (A) (A) (A) (A) (A) (A) (A) (A) (A) (A) (A) (A)
                 (A) (A) (A) (A) (A) (A) (A) (A) (A)
       Virtual   (A) (A) (A) (A) (A) (A) (A) (A) (A) (A) (A) (A)
                 (A) (A) (A) (A) (A) (A) (A) (A) (A) (A) (A) (A)
                 (A) (A) (A) (A) (A) (A) (A) (A) (A) (A) (A) (A)
                 (A) (A) (A) (A) (A) (A) (A) (A) (A) (A) (A) (A)
                 (A) (A) (A) (A) (A) (A) (A) (A) (A) (A) (A) (A)
                 (A) (A) (A) (A) (A) (A) (A) (A) (A) (A) (A) (A)
                 (A) (A) (A) (A) (A) (A) (A) (A) (A) (A) (A) (A)
                 (A) (A) (A) (A) (A) (A) (A) (A) (A) (A) (A) (A)
                 (A) (A) (A) (A) (A) (A) (A) (A) (A) (A) (A) (A)
                 (A) (A) (A)
 Beta  Orbitals:
       Occupied  (A) (A) (A) (A) (A) (A) (A) (A) (A) (A) (A) (A)
                 (A) (A) (A) (A) (A) (A) (A) (A)
       Virtual   (A) (A) (A) (A) (A) (A) (A) (A) (A) (A) (A) (A)
                 (A) (A) (A) (A) (A) (A) (A) (A) (A) (A) (A) (A)
                 (A) (A) (A) (A) (A) (A) (A) (A) (A) (A) (A) (A)
                 (A) (A) (A) (A) (A) (A) (A) (A) (A) (A) (A) (A)
                 (A) (A) (A) (A) (A) (A) (A) (A) (A) (A) (A) (A)
                 (A) (A) (A) (A) (A) (A) (A) (A) (A) (A) (A) (A)
                 (A) (A) (A) (A) (A) (A) (A) (A) (A) (A) (A) (A)
                 (A) (A) (A) (A) (A) (A) (A) (A) (A) (A) (A) (A)
                 (A) (A) (A) (A) (A) (A) (A) (A) (A) (A) (A) (A)
                 (A) (A) (A) (A)
 The electronic state is 2-A.
 Alpha  occ. eigenvalues --  -19.17946 -19.09911 -10.24597 -10.21762 -10.18267
 Alpha  occ. eigenvalues --   -1.05560  -1.01569  -0.78191  -0.67491  -0.60835
 Alpha  occ. eigenvalues --   -0.52693  -0.49156  -0.48189  -0.45662  -0.42783
 Alpha  occ. eigenvalues --   -0.40483  -0.39024  -0.34136  -0.33454  -0.29139
 Alpha  occ. eigenvalues --   -0.26592
 Alpha virt. eigenvalues --    0.03225   0.06323   0.07376   0.09024   0.10578
 Alpha virt. eigenvalues --    0.10615   0.12135   0.16019   0.19147   0.21775
 Alpha virt. eigenvalues --    0.24162   0.29608   0.32982   0.36471   0.38424
 Alpha virt. eigenvalues --    0.42149   0.45015   0.46463   0.48208   0.48835
 Alpha virt. eigenvalues --    0.50996   0.54030   0.56580   0.57830   0.59032
 Alpha virt. eigenvalues --    0.59671   0.60725   0.70114   0.71891   0.76165
 Alpha virt. eigenvalues --    0.84624   0.87575   0.90280   0.92537   0.93552
 Alpha virt. eigenvalues --    1.00937   1.02199   1.10416   1.15818   1.21980
 Alpha virt. eigenvalues --    1.29863   1.33021   1.37973   1.43051   1.46517
 Alpha virt. eigenvalues --    1.46964   1.50040   1.51503   1.51885   1.56437
 Alpha virt. eigenvalues --    1.59641   1.60080   1.61857   1.63266   1.68317
 Alpha virt. eigenvalues --    1.71011   1.72536   1.79450   1.80696   1.92315
 Alpha virt. eigenvalues --    1.95542   1.97449   2.03940   2.11144   2.13776
 Alpha virt. eigenvalues --    2.14758   2.20700   2.26814   2.29032   2.34379
 Alpha virt. eigenvalues --    2.37052   2.40823   2.47319   2.49938   2.52638
 Alpha virt. eigenvalues --    2.59054   2.61411   2.62014   2.64188   2.68406
 Alpha virt. eigenvalues --    2.78511   2.83257   2.83774   2.87414   2.95404
 Alpha virt. eigenvalues --    3.01882   3.13614   3.14934   3.21676   3.24741
 Alpha virt. eigenvalues --    3.26696   3.38839   3.68069   3.72308   3.78661
 Alpha virt. eigenvalues --    3.85197   3.89570   3.94838   4.09198   4.25371
 Alpha virt. eigenvalues --    4.79579   4.90219   4.94059   5.28314   5.44684
 Alpha virt. eigenvalues --    5.69112  23.73738  23.79867  23.84169  49.79460
 Alpha virt. eigenvalues --   49.91290
  Beta  occ. eigenvalues --  -19.15651 -19.09909 -10.24644 -10.21762 -10.18249
  Beta  occ. eigenvalues --   -1.02195  -1.00020  -0.77606  -0.66618  -0.60051
  Beta  occ. eigenvalues --   -0.51658  -0.48276  -0.45524  -0.44777  -0.42122
  Beta  occ. eigenvalues --   -0.39835  -0.37454  -0.33614  -0.27729  -0.26535
  Beta virt. eigenvalues --   -0.15891   0.03420   0.06528   0.07487   0.09226
  Beta virt. eigenvalues --    0.10649   0.10874   0.12323   0.16646   0.19319
  Beta virt. eigenvalues --    0.21876   0.24340   0.30380   0.33358   0.36637
  Beta virt. eigenvalues --    0.38549   0.42395   0.45553   0.46990   0.48619
  Beta virt. eigenvalues --    0.49168   0.51381   0.54200   0.56819   0.58011
  Beta virt. eigenvalues --    0.59066   0.59742   0.60883   0.70426   0.72641
  Beta virt. eigenvalues --    0.79008   0.85122   0.87881   0.92651   0.92912
  Beta virt. eigenvalues --    0.93773   1.01471   1.02809   1.10705   1.16294
  Beta virt. eigenvalues --    1.22617   1.30305   1.33245   1.38990   1.43260
  Beta virt. eigenvalues --    1.46785   1.47397   1.50366   1.51645   1.52192
  Beta virt. eigenvalues --    1.56524   1.60164   1.60226   1.62521   1.64097
  Beta virt. eigenvalues --    1.68857   1.71102   1.72838   1.80112   1.80946
  Beta virt. eigenvalues --    1.92888   1.95823   1.97678   2.04524   2.11325
  Beta virt. eigenvalues --    2.14237   2.15502   2.20911   2.27504   2.29403
  Beta virt. eigenvalues --    2.34588   2.37391   2.41092   2.48145   2.50335
  Beta virt. eigenvalues --    2.53494   2.59431   2.61638   2.62429   2.65140
  Beta virt. eigenvalues --    2.68874   2.79213   2.87435   2.89059   2.90573
  Beta virt. eigenvalues --    2.96166   3.02957   3.14137   3.18819   3.22087
  Beta virt. eigenvalues --    3.24978   3.27619   3.38893   3.68267   3.73696
  Beta virt. eigenvalues --    3.78820   3.85693   3.90889   3.94945   4.09334
  Beta virt. eigenvalues --    4.25514   4.88714   4.91149   4.95985   5.28329
  Beta virt. eigenvalues --    5.46474   5.69235  23.73703  23.79857  23.84188
  Beta virt. eigenvalues --   49.81804  49.91291
          Condensed to atoms (all electrons):
               1          2          3          4          5          6
     1  O    8.046020   0.280721  -0.067549   0.009227  -0.012154  -0.024179
     2  C    0.280721   4.805585   0.325103  -0.051507  -0.002936   0.365256
     3  C   -0.067549   0.325103   5.197649   0.329882  -0.043636  -0.039685
     4  C    0.009227  -0.051507   0.329882   4.727255   0.301307  -0.008195
     5  O   -0.012154  -0.002936  -0.043636   0.301307   7.875832  -0.000240
     6  H   -0.024179   0.365256  -0.039685  -0.008195  -0.000240   0.570394
     7  H   -0.029513   0.394393  -0.062898   0.008053  -0.000485  -0.025645
     8  H    0.000056  -0.048444   0.389402  -0.040242   0.010492   0.008721
     9  H    0.005021  -0.029014   0.344653  -0.021392   0.005188  -0.004722
    10  H   -0.000136   0.008199  -0.028298   0.398512  -0.033378  -0.000428
    11  H    0.000237  -0.014526  -0.057422   0.382366  -0.036239   0.006284
    12  H    0.038037  -0.003635  -0.010808  -0.049366   0.324618   0.001087
               7          8          9         10         11         12
     1  O   -0.029513   0.000056   0.005021  -0.000136   0.000237   0.038037
     2  C    0.394393  -0.048444  -0.029014   0.008199  -0.014526  -0.003635
     3  C   -0.062898   0.389402   0.344653  -0.028298  -0.057422  -0.010808
     4  C    0.008053  -0.040242  -0.021392   0.398512   0.382366  -0.049366
     5  O   -0.000485   0.010492   0.005188  -0.033378  -0.036239   0.324618
     6  H   -0.025645   0.008721  -0.004722  -0.000428   0.006284   0.001087
     7  H    0.589653  -0.005962   0.001078  -0.000388  -0.000044   0.001331
     8  H   -0.005962   0.580705  -0.022890  -0.010850   0.013164  -0.000751
     9  H    0.001078  -0.022890   0.620908  -0.004813   0.002413  -0.000149
    10  H   -0.000388  -0.010850  -0.004813   0.608931  -0.051945   0.008259
    11  H   -0.000044   0.013164   0.002413  -0.051945   0.685742  -0.005159
    12  H    0.001331  -0.000751  -0.000149   0.008259  -0.005159   0.464454
          Atomic-Atomic Spin Densities.
               1          2          3          4          5          6
     1  O    0.948012  -0.038209  -0.002298  -0.000016   0.000966  -0.028982
     2  C   -0.038209  -0.073061   0.019399   0.001535  -0.000100   0.019377
     3  C   -0.002298   0.019399  -0.004620  -0.005567   0.000010  -0.003134
     4  C   -0.000016   0.001535  -0.005567   0.018287  -0.000590  -0.006820
     5  O    0.000966  -0.000100   0.000010  -0.000590  -0.001155   0.000215
     6  H   -0.028982   0.019377  -0.003134  -0.006820   0.000215   0.167815
     7  H   -0.006578   0.008795   0.009021   0.001542  -0.000002  -0.021291
     8  H    0.003274  -0.002249  -0.000765  -0.007111   0.000032   0.002609
     9  H   -0.000180  -0.000273   0.001708  -0.001398   0.000036   0.001549
    10  H   -0.000017   0.000034  -0.000340   0.000558  -0.000026  -0.000108
    11  H   -0.000069  -0.000247   0.000705  -0.001103   0.000194   0.000453
    12  H   -0.004445   0.000440   0.000716  -0.000362   0.001951   0.000038
               7          8          9         10         11         12
     1  O   -0.006578   0.003274  -0.000180  -0.000017  -0.000069  -0.004445
     2  C    0.008795  -0.002249  -0.000273   0.000034  -0.000247   0.000440
     3  C    0.009021  -0.000765   0.001708  -0.000340   0.000705   0.000716
     4  C    0.001542  -0.007111  -0.001398   0.000558  -0.001103  -0.000362
     5  O   -0.000002   0.000032   0.000036  -0.000026   0.000194   0.001951
     6  H   -0.021291   0.002609   0.001549  -0.000108   0.000453   0.000038
     7  H    0.058267  -0.003273  -0.001146   0.000023  -0.000027  -0.000169
     8  H   -0.003273   0.012213   0.001549  -0.000249   0.000061   0.000048
     9  H   -0.001146   0.001549  -0.002781  -0.000059   0.000073  -0.000042
    10  H    0.000023  -0.000249  -0.000059   0.000013  -0.000033   0.000041
    11  H   -0.000027   0.000061   0.000073  -0.000033  -0.000069   0.000009
    12  H   -0.000169   0.000048  -0.000042   0.000041   0.000009  -0.002282
 Mulliken charges and spin densities:
               1          2
     1  O   -0.245788   0.871458
     2  C   -0.029195  -0.064561
     3  C   -0.276392   0.014835
     4  C    0.014099  -0.001047
     5  O   -0.388368   0.001530
     6  H    0.151350   0.131722
     7  H    0.130426   0.045162
     8  H    0.126599   0.006138
     9  H    0.103721  -0.000965
    10  H    0.106336  -0.000164
    11  H    0.075129  -0.000053
    12  H    0.232082  -0.004057
 Sum of Mulliken charges =   0.00000   1.00000
 Mulliken charges and spin densities with hydrogens summed into heavy atoms:
               1          2
     1  O   -0.245788   0.871458
     2  C    0.252581   0.112324
     3  C   -0.046072   0.020008
     4  C    0.195564  -0.001263
     5  O   -0.156286  -0.002527
 APT charges:
               1
     1  O   -0.127235
     2  C   -0.729270
     3  C   -0.639720
     4  C   -0.661971
     5  O   -0.338997
     6  H    0.356064
     7  H    0.463992
     8  H    0.311279
     9  H    0.379034
    10  H    0.458119
    11  H    0.262769
    12  H    0.265936
 Sum of APT charges =   0.00000
 APT charges with hydrogens summed into heavy atoms:
               1
     1  O   -0.127235
     2  C    0.090786
     3  C    0.050593
     4  C    0.058917
     5  O   -0.073061
 Electronic spatial extent (au):  <R**2>=            441.4334
 Charge=              0.0000 electrons
 Dipole moment (field-independent basis, Debye):
    X=              1.7218    Y=              2.4710    Z=              0.7352  Tot=              3.1002
 Quadrupole moment (field-independent basis, Debye-Ang):
   XX=            -34.2915   YY=            -31.5999   ZZ=            -30.1144
   XY=             -0.0412   XZ=             -0.3032   YZ=             -0.0530
 Traceless Quadrupole moment (field-independent basis, Debye-Ang):
   XX=             -2.2896   YY=              0.4020   ZZ=              1.8876
   XY=             -0.0412   XZ=             -0.3032   YZ=             -0.0530
 Octapole moment (field-independent basis, Debye-Ang**2):
  XXX=              6.8872  YYY=             -7.1982  ZZZ=              0.1690  XYY=             -1.3555
  XXY=              8.4694  XXZ=              1.1883  XZZ=              2.3985  YZZ=             -2.4500
  YYZ=             -0.0918  XYZ=              0.8160
 Hexadecapole moment (field-independent basis, Debye-Ang**3):
 XXXX=           -324.6620 YYYY=           -164.1780 ZZZZ=            -60.3306 XXXY=             -4.2189
 XXXZ=             -0.9408 YYYX=              2.5707 YYYZ=              2.3788 ZZZX=              2.6879
 ZZZY=              0.7604 XXYY=            -88.5463 XXZZ=            -62.4879 YYZZ=            -39.3134
 XXYZ=             -0.9356 YYXZ=              0.5969 ZZXY=             -0.5289
 N-N= 1.852596762100D+02 E-N=-1.001160001331D+03  KE= 2.680936584206D+02
  Exact polarizability:   0.000   0.000   0.000   0.000   0.000   0.000
 Approx polarizability:  55.796   0.890  64.667   0.761   2.934  53.403
                          Isotropic Fermi Contact Couplings
        Atom                 a.u.       MegaHertz       Gauss      10(-4) cm-1
     1  O(17)              0.05593     -33.90600     -12.09850     -11.30982
     2  C(13)             -0.03389     -38.09794     -13.59429     -12.70810
     3  C(13)              0.00297       3.33664       1.19060       1.11298
     4  C(13)              0.00012       0.13578       0.04845       0.04529
     5  O(17)             -0.00078       0.47294       0.16876       0.15776
     6  H(1)               0.06105     272.90733      97.38012      91.03209
     7  H(1)               0.02039      91.12053      32.51407      30.39454
     8  H(1)               0.00129       5.75316       2.05287       1.91905
     9  H(1)              -0.00057      -2.53104      -0.90314      -0.84426
    10  H(1)               0.00001       0.04476       0.01597       0.01493
    11  H(1)              -0.00001      -0.03567      -0.01273      -0.01190
    12  H(1)               0.00018       0.82418       0.29409       0.27492
 --------------------------------------------------------
       Center         ----  Spin Dipole Couplings  ----
                      3XX-RR        3YY-RR        3ZZ-RR
 --------------------------------------------------------
     1   Atom       -1.728225     -1.729289      3.457514
     2   Atom       -0.056726      0.020841      0.035885
     3   Atom        0.007723      0.003911     -0.011633
     4   Atom        0.006797     -0.001762     -0.005035
     5   Atom       -0.000646     -0.008432      0.009079
     6   Atom       -0.016208      0.005768      0.010439
     7   Atom        0.003420      0.009778     -0.013199
     8   Atom       -0.001063      0.001719     -0.000656
     9   Atom       -0.001859      0.005852     -0.003993
    10   Atom        0.003028     -0.000859     -0.002168
    11   Atom        0.005043     -0.002511     -0.002531
    12   Atom        0.023339     -0.012144     -0.011196
 --------------------------------------------------------
                        XY            XZ            YZ
 --------------------------------------------------------
     1   Atom        0.017198     -0.258294     -0.238899
     2   Atom       -0.000845     -0.004869     -0.005901
     3   Atom       -0.018420      0.011128     -0.007101
     4   Atom       -0.005234     -0.000614      0.000499
     5   Atom        0.003574      0.003200      0.002146
     6   Atom        0.001405      0.006600      0.013696
     7   Atom        0.014231     -0.003333     -0.005271
     8   Atom       -0.006473      0.004592     -0.005216
     9   Atom       -0.005331      0.001074     -0.000661
    10   Atom       -0.002664      0.000034      0.000072
    11   Atom       -0.003803     -0.004093      0.002202
    12   Atom        0.007204      0.002099      0.000559
 --------------------------------------------------------


 ---------------------------------------------------------------------------------
              Anisotropic Spin Dipole Couplings in Principal Axis System
 ---------------------------------------------------------------------------------

       Atom             a.u.   MegaHertz   Gauss  10(-4) cm-1        Axes

              Baa    -1.7460   126.340    45.081    42.142  0.7327 -0.6805  0.0051
     1 O(17)  Bbb    -1.7353   125.568    44.806    41.885  0.6787  0.7313  0.0674
              Bcc     3.4814  -251.908   -89.887   -84.028 -0.0496 -0.0459  0.9977
 
              Baa    -0.0570    -7.649    -2.729    -2.551  0.9985  0.0149  0.0533
     2 C(13)  Bbb     0.0189     2.533     0.904     0.845 -0.0312  0.9470  0.3196
              Bcc     0.0381     5.116     1.825     1.706 -0.0457 -0.3208  0.9460
 
              Baa    -0.0169    -2.265    -0.808    -0.756 -0.4984 -0.1499  0.8539
     3 C(13)  Bbb    -0.0117    -1.568    -0.559    -0.523  0.4872  0.7663  0.4189
              Bcc     0.0286     3.833     1.368     1.279  0.7171 -0.6248  0.3089
 
              Baa    -0.0051    -0.687    -0.245    -0.229 -0.0428 -0.2119  0.9763
     4 C(13)  Bbb    -0.0042    -0.564    -0.201    -0.188  0.4296  0.8784  0.2095
              Bcc     0.0093     1.251     0.446     0.417  0.9020 -0.4284 -0.0535
 
              Baa    -0.0099     0.714     0.255     0.238 -0.3467  0.9368 -0.0475
     5 O(17)  Bbb    -0.0007     0.050     0.018     0.017  0.8819  0.3083 -0.3566
              Bcc     0.0106    -0.764    -0.273    -0.255  0.3194  0.1656  0.9330
 
              Baa    -0.0179    -9.566    -3.413    -3.191  0.9574  0.0998 -0.2709
     6 H(1)   Bbb    -0.0050    -2.658    -0.948    -0.887 -0.2457  0.7746 -0.5828
              Bcc     0.0229    12.224     4.362     4.077  0.1517  0.6245  0.7661
 
              Baa    -0.0144    -7.659    -2.733    -2.555  0.0235  0.2001  0.9795
     7 H(1)   Bbb    -0.0079    -4.220    -1.506    -1.408  0.7898 -0.6043  0.1045
              Bcc     0.0223    11.879     4.239     3.962  0.6129  0.7712 -0.1722
 
              Baa    -0.0063    -3.380    -1.206    -1.127  0.8144  0.5628 -0.1416
     8 H(1)   Bbb    -0.0047    -2.523    -0.900    -0.842 -0.1930  0.4927  0.8485
              Bcc     0.0111     5.903     2.106     1.969 -0.5473  0.6637 -0.5098
 
              Baa    -0.0050    -2.686    -0.958    -0.896  0.7537  0.3348 -0.5656
     9 H(1)   Bbb    -0.0036    -1.939    -0.692    -0.647  0.4723  0.3226  0.8203
              Bcc     0.0087     4.625     1.650     1.543 -0.4571  0.8854 -0.0850
 
              Baa    -0.0023    -1.213    -0.433    -0.405  0.3611  0.7108 -0.6036
    10 H(1)   Bbb    -0.0021    -1.125    -0.401    -0.375  0.2738  0.5380  0.7973
              Bcc     0.0044     2.338     0.834     0.780  0.8914 -0.4531 -0.0004
 
              Baa    -0.0047    -2.530    -0.903    -0.844  0.0789 -0.6291  0.7733
    11 H(1)   Bbb    -0.0038    -2.036    -0.727    -0.679  0.5266  0.6849  0.5035
              Bcc     0.0086     4.566     1.629     1.523  0.8464 -0.3675 -0.3854
 
              Baa    -0.0136    -7.235    -2.582    -2.413 -0.1876  0.9801 -0.0651
    12 H(1)   Bbb    -0.0113    -6.038    -2.154    -2.014 -0.0712  0.0525  0.9961
              Bcc     0.0249    13.273     4.736     4.427  0.9797  0.1915  0.0600
 

 ---------------------------------------------------------------------------------

 No NMR shielding tensors so no spin-rotation constants.
 Leave Link  601 at Sat Aug  1 02:40:46 2020, MaxMem=  1879048192 cpu:         8.7
 (Enter /cm/shared/c3ddb/gaussian/09.d01/g09/l701.exe)
 Compute integral second derivatives.
 ... and contract with generalized density number  0.
 Leave Link  701 at Sat Aug  1 02:40:48 2020, MaxMem=  1879048192 cpu:         8.2
 (Enter /cm/shared/c3ddb/gaussian/09.d01/g09/l702.exe)
 L702 exits ... SP integral derivatives will be done elsewhere.
 Leave Link  702 at Sat Aug  1 02:40:48 2020, MaxMem=  1879048192 cpu:         0.2
 (Enter /cm/shared/c3ddb/gaussian/09.d01/g09/l703.exe)
 Compute integral second derivatives, UseDBF=F ICtDFT=           0.
 Integral derivatives from FoFJK, PRISM(SPDF).
 Calling FoFJK, ICntrl=    100147 FMM=F ISym2X=0 I1Cent= 0 IOpClX= 1 NMat=1 NMatS=1 NMatT=0.
 FoFJK:  IHMeth= 1 ICntrl=  100147 DoSepK=F KAlg= 0 I1Cent=   0 FoldK=F
 IRaf=         0 NMat=   1 IRICut=       1 DoRegI=T DoRafI=F ISym2E= 0.
 FoFCou: FMM=F IPFlag=           0 FMFlag=      100000 FMFlg1=         800
         NFxFlg=           0 DoJE=F BraDBF=F KetDBF=F FulRan=T
         wScrn=  0.000000 ICntrl=  100147 IOpCl=  1 I1Cent=           0 NGrid=           0
         NMat0=    1 NMatS0=      1 NMatT0=    0 NMatD0=    1 NMtDS0=    0 NMtDT0=    0
 Symmetry not used in FoFCou.
 Leave Link  703 at Sat Aug  1 02:42:11 2020, MaxMem=  1879048192 cpu:       499.8
 (Enter /cm/shared/c3ddb/gaussian/09.d01/g09/l716.exe)
 Dipole        = 6.77419808D-01 9.72172239D-01 2.89251747D-01
 Polarizability= 0.00000000D+00 0.00000000D+00 0.00000000D+00
                 0.00000000D+00 0.00000000D+00 0.00000000D+00
 ***** Axes restored to original set *****
 -------------------------------------------------------------------
 Center     Atomic                   Forces (Hartrees/Bohr)
 Number     Number              X              Y              Z
 -------------------------------------------------------------------
      1        8           0.003200685   -0.006526132    0.001217316
      2        6           0.001138960    0.007217453   -0.005831283
      3        6          -0.006181371    0.002636493   -0.003998453
      4        6          -0.000669510    0.015783529    0.001661354
      5        8          -0.000857512   -0.010619207    0.003817035
      6        1          -0.001769609   -0.001328369   -0.000899989
      7        1           0.000206775   -0.000572546    0.003579705
      8        1           0.003336176    0.002200729    0.001595758
      9        1           0.000660372   -0.003383873    0.001113378
     10        1           0.003757384   -0.002677923   -0.001182140
     11        1          -0.002898478   -0.002501018   -0.001421431
     12        1           0.000076127   -0.000229137    0.000348750
 -------------------------------------------------------------------
 Cartesian Forces:  Max     0.015783529 RMS     0.004324794
 Force constants in Cartesian coordinates: 
                1             2             3             4             5 
      1  0.883338D-01
      2 -0.102533D+00  0.294004D+00
      3  0.187679D-01 -0.848232D-01  0.671462D-01
      4 -0.815566D-01  0.978754D-01 -0.266756D-01  0.451407D+00
      5  0.627048D-01 -0.191089D+00  0.581677D-01 -0.235676D-01  0.393291D+00
      6 -0.164512D-01  0.638404D-01 -0.464385D-01  0.289753D-01 -0.271202D-01
      7 -0.104507D-01  0.144459D-01  0.166353D-02 -0.154489D+00  0.155720D-01
      8  0.421326D-01 -0.328152D-01 -0.101880D-01  0.116472D-01 -0.634072D-01
      9 -0.595317D-02 -0.366929D-02  0.405863D-03  0.222447D-01  0.733565D-02
     10  0.227210D-02 -0.133056D-02 -0.433014D-02 -0.296223D-02 -0.540416D-02
     11 -0.332773D-02 -0.360810D-03  0.522655D-02 -0.369064D-02  0.232039D-02
     12 -0.180484D-02  0.322389D-02 -0.767013D-03  0.121015D-01 -0.301371D-02
     13 -0.328498D-02 -0.435517D-03  0.108290D-01 -0.876894D-03  0.988459D-03
     14 -0.461410D-04  0.441723D-02 -0.958664D-03  0.603829D-02 -0.233656D-02
     15  0.713821D-02  0.697445D-03 -0.352267D-02  0.323040D-03 -0.200875D-02
     16  0.726731D-02 -0.929853D-02  0.688919D-02 -0.136746D+00 -0.739079D-01
     17 -0.947573D-02 -0.471272D-01  0.216512D-02 -0.947720D-01 -0.101502D+00
     18  0.622834D-02  0.300655D-02 -0.727294D-02 -0.585686D-01 -0.383179D-01
     19  0.420918D-02 -0.144153D-02 -0.470104D-02 -0.489199D-01  0.946435D-02
     20  0.619567D-02 -0.263689D-01  0.364861D-01  0.101340D-02 -0.330322D-01
     21 -0.816018D-02  0.208208D-01 -0.101298D-01  0.167522D-01  0.528741D-02
     22  0.336648D-02 -0.216768D-02 -0.941922D-03 -0.254086D-01 -0.129062D-01
     23 -0.953133D-03  0.217689D-02  0.584190D-04  0.877630D-02  0.315474D-02
     24 -0.136975D-02  0.205928D-02  0.752942D-03  0.111508D-01  0.484111D-02
     25 -0.662836D-02  0.496196D-02  0.175621D-02 -0.540955D-02  0.267469D-01
     26  0.238119D-02 -0.382670D-03  0.492670D-04 -0.377717D-03 -0.777648D-02
     27  0.276684D-02 -0.135199D-02  0.950221D-03  0.158894D-02 -0.111228D-01
     28  0.884522D-04 -0.410230D-03  0.478970D-03  0.136561D-02 -0.493652D-04
     29  0.289822D-03  0.238128D-03 -0.431922D-03 -0.229380D-03  0.108363D-02
     30 -0.493329D-03 -0.332222D-03  0.987812D-03 -0.244262D-02  0.169094D-02
     31  0.415092D-03 -0.991517D-04  0.554634D-04  0.965368D-03  0.818056D-03
     32  0.671091D-03  0.244478D-03 -0.152212D-03 -0.876879D-04 -0.410037D-03
     33  0.545815D-03 -0.622969D-03  0.644923D-03 -0.199407D-02 -0.551731D-04
     34 -0.403177D-02  0.433154D-03 -0.379154D-02  0.263086D-02 -0.459304D-03
     35  0.196080D-02 -0.293680D-02 -0.559924D-02 -0.262566D-02 -0.296102D-03
     36 -0.121460D-02 -0.284874D-02 -0.275698D-02 -0.345570D-02  0.431576D-02
                6             7             8             9            10 
      6  0.425043D+00
      7  0.300318D-01  0.496828D+00
      8  0.437171D-02  0.226316D-01  0.572064D+00
      9 -0.698033D-01  0.356954D-01 -0.105963D-01  0.461167D+00
     10  0.411878D-01 -0.840509D-01  0.205391D-02  0.175077D-02  0.586320D+00
     11 -0.147647D-01  0.272009D-02 -0.763316D-01  0.175701D-02 -0.248194D-01
     12 -0.189589D-01  0.392104D-02 -0.622101D-02 -0.180816D+00 -0.200505D-01
     13 -0.850463D-02  0.422448D-02 -0.444099D-03  0.737469D-03 -0.848122D-01
     14 -0.325487D-02 -0.177848D-02 -0.225441D-01  0.155446D-01 -0.145902D-01
     15 -0.979389D-03 -0.789235D-03  0.459217D-01 -0.941535D-02  0.199453D-01
     16 -0.604783D-01 -0.257994D-01 -0.165189D-01 -0.505356D-02  0.990055D-03
     17 -0.561946D-01  0.540447D-02  0.452868D-02  0.264038D-02  0.310257D-03
     18 -0.339089D-01  0.107037D-01  0.353358D-02 -0.691163D-02  0.466170D-03
     19 -0.717068D-02 -0.275566D-03 -0.201762D-02  0.364479D-01 -0.558636D-02
     20  0.198263D-01 -0.145188D-02  0.120287D-02 -0.109703D-01  0.184024D-02
     21 -0.255289D+00 -0.139102D-02 -0.320595D-03 -0.112178D-01  0.296924D-02
     22 -0.671856D-02 -0.172869D+00 -0.944169D-01 -0.753598D-01  0.113641D-02
     23  0.356941D-02 -0.954464D-01 -0.122146D+00 -0.564326D-01  0.154075D-02
     24  0.192571D-02 -0.728837D-01 -0.544036D-01 -0.896283D-01 -0.256570D-01
     25 -0.695518D-02 -0.540752D-01  0.371420D-01 -0.985649D-02 -0.137619D-02
     26  0.553849D-03  0.389711D-01 -0.268092D+00  0.547825D-01  0.334698D-04
     27  0.667382D-03 -0.998317D-02  0.531941D-01 -0.625527D-01 -0.476846D-02
     28 -0.103704D-02 -0.394374D-04 -0.880798D-03 -0.816914D-04 -0.230033D+00
     29  0.113258D-02 -0.304309D-02  0.169311D-02  0.174176D-03  0.700449D-01
     30 -0.686903D-02  0.300661D-01 -0.114239D-01 -0.125727D-01  0.706925D-01
     31  0.847290D-05  0.184150D-03  0.384396D-03  0.126155D-02 -0.181344D+00
     32 -0.523277D-03  0.107426D-02  0.451337D-02  0.416460D-03 -0.662496D-01
     33  0.602142D-03 -0.261799D-01 -0.152971D-01 -0.179277D-01 -0.713080D-01
     34  0.711224D-02  0.812159D-03 -0.171349D-02 -0.183301D-02 -0.552637D-03
     35  0.856343D-02  0.900414D-03  0.133335D-02 -0.982283D-03  0.365704D-01
     36  0.400901D-02 -0.854625D-03  0.142956D-02 -0.726941D-03 -0.108977D-01
               11            12            13            14            15 
     11  0.524853D+00
     12  0.370626D-01  0.473590D+00
     13  0.147308D-01  0.121233D-01  0.369243D+00
     14 -0.246426D+00  0.608009D-01 -0.153639D+00  0.457764D+00
     15  0.291090D-01 -0.853713D-01 -0.207927D+00  0.108659D-01  0.213563D+00
     16 -0.131923D-03 -0.225368D-02  0.586835D-04 -0.476600D-03 -0.117077D-03
     17  0.213652D-03  0.118551D-03 -0.564148D-03 -0.452013D-03 -0.122241D-03
     18  0.180893D-02  0.150171D-02  0.151654D-02  0.126626D-03  0.786406D-03
     19  0.397097D-02 -0.734261D-03 -0.267277D-03 -0.226056D-02 -0.131345D-02
     20 -0.146484D-03 -0.127959D-03  0.373804D-03  0.773032D-03  0.386931D-03
     21 -0.189156D-02  0.891730D-03  0.615388D-04  0.744309D-03  0.117694D-03
     22  0.328729D-03 -0.100955D-03  0.685969D-03  0.124025D-02  0.747023D-03
     23  0.355612D-03  0.171945D-02  0.710464D-03  0.175090D-02  0.345111D-04
     24 -0.213976D-01 -0.184585D-01  0.161177D-02 -0.800773D-04  0.494407D-02
     25 -0.225205D-02 -0.429344D-03  0.156240D-02 -0.830672D-03  0.220798D-02
     26 -0.373876D-02 -0.146597D-02  0.330454D-03  0.812028D-03  0.218423D-02
     27  0.317451D-01 -0.121100D-02 -0.260753D-03  0.326533D-02 -0.864568D-02
     28  0.800239D-01  0.708939D-01  0.504351D-02  0.410234D-02 -0.161773D-02
     29 -0.813501D-01 -0.301489D-01  0.330645D-01 -0.309318D-01 -0.110179D-01
     30 -0.342323D-01 -0.809387D-01 -0.911267D-02  0.600758D-02  0.608702D-02
     31 -0.680849D-01 -0.725887D-01  0.817593D-02 -0.804812D-02  0.344682D-02
     32 -0.886202D-01 -0.430764D-01 -0.253551D-01 -0.386498D-01 -0.707418D-02
     33 -0.421051D-01 -0.950568D-01  0.912708D-02  0.757367D-02  0.866868D-02
     34  0.532101D-03 -0.107752D-02 -0.299753D+00  0.170289D+00  0.177956D+00
     35 -0.307688D-01 -0.188715D-01  0.130239D+00 -0.124177D+00 -0.689766D-01
     36  0.768192D-02  0.559479D-02  0.189798D+00 -0.100635D+00 -0.126233D+00
               16            17            18            19            20 
     16  0.158093D+00
     17  0.997027D-01  0.140339D+00
     18  0.577122D-01  0.516911D-01  0.599853D-01
     19 -0.208894D-02 -0.250692D-02 -0.145047D-01  0.492766D-01
     20 -0.194556D-02  0.303647D-02 -0.213677D-01 -0.499717D-02  0.543187D-01
     21 -0.571896D-03 -0.185391D-04 -0.151632D-01 -0.995568D-02 -0.244788D-01
     22 -0.400824D-02  0.151294D-02  0.405680D-03  0.161834D-02 -0.585403D-03
     23  0.195707D-02  0.459162D-03  0.740407D-04 -0.872304D-03  0.274479D-03
     24  0.269355D-02 -0.102422D-02  0.915695D-03 -0.103422D-02  0.853410D-03
     25  0.173113D-02  0.165497D-03 -0.171733D-02  0.166233D-02 -0.787492D-03
     26 -0.985302D-04  0.355023D-03  0.890611D-03 -0.300483D-03  0.294980D-03
     27 -0.540851D-03 -0.330029D-04  0.104195D-02 -0.120119D-02  0.559279D-03
     28  0.266300D-03 -0.336908D-05  0.740051D-04 -0.190744D-03  0.458205D-03
     29  0.293857D-03 -0.891360D-05 -0.920710D-04 -0.215449D-03  0.276694D-03
     30  0.125776D-05  0.219805D-03  0.123143D-04  0.206731D-02 -0.455251D-03
     31  0.569061D-03 -0.214706D-03 -0.343155D-03  0.707028D-04  0.111378D-03
     32  0.217444D-03 -0.721334D-04 -0.239396D-03 -0.524302D-04  0.166440D-03
     33  0.101018D-02  0.156093D-03  0.147820D-03 -0.125798D-03  0.531678D-03
[...]
  Beta virt. eigenvalues --    3.97947   3.99655   4.02682   4.08169   4.10392
  Beta virt. eigenvalues --    4.12190   4.13933   4.17254   4.19626   4.27464
  Beta virt. eigenvalues --    4.29663   4.32963   4.34592   4.43887   4.46534
  Beta virt. eigenvalues --    4.48636   4.52535   4.53888   4.57165   4.58895
  Beta virt. eigenvalues --    4.62257   4.65240   4.67838   4.71590   4.72390
  Beta virt. eigenvalues --    4.80396   4.81451   4.83982   4.89937   4.90977
  Beta virt. eigenvalues --    4.94075   4.98272   5.05407   5.22993   5.48244
  Beta virt. eigenvalues --    5.50679   5.59640   5.62584   5.65259   5.66963
  Beta virt. eigenvalues --    5.69070   5.70022   5.75222   5.78016   5.80623
  Beta virt. eigenvalues --    5.84043   5.88575   5.89728   5.98227   6.01456
  Beta virt. eigenvalues --    6.03262   6.06779   6.10804   6.30964   6.38522
  Beta virt. eigenvalues --    6.40887   6.41707   7.02862   7.14636   7.37843
  Beta virt. eigenvalues --    7.45020   7.55496   7.76445   7.77887   7.79436
  Beta virt. eigenvalues --    7.80598   7.85818   8.06539   8.10900   8.23229
  Beta virt. eigenvalues --   25.39806  25.49191  25.56464  51.65735  51.75117
          Condensed to atoms (all electrons):
               1          2          3          4          5          6
     1  O    8.095535   0.198765  -0.023392  -0.018934  -0.024621  -0.047966
     2  C    0.198765   4.970622   0.096284   0.088669  -0.051130   0.436397
     3  C   -0.023392   0.096284   4.954912   0.161639   0.007734  -0.048680
     4  C   -0.018934   0.088669   0.161639   4.964487   0.192638   0.003620
     5  O   -0.024621  -0.051130   0.007734   0.192638   8.077202   0.001316
     6  H   -0.047966   0.436397  -0.048680   0.003620   0.001316   0.613958
     7  H   -0.037597   0.409330  -0.018552  -0.010718   0.000567  -0.036875
     8  H   -0.013613  -0.024991   0.432623  -0.032625  -0.018275   0.006925
     9  H    0.009455  -0.032814   0.456893  -0.033167   0.008320  -0.012424
    10  H    0.001255   0.010192  -0.053074   0.460315  -0.063806   0.002592
    11  H   -0.006711  -0.036033   0.047039   0.339761  -0.048176  -0.009090
    12  H    0.028142  -0.007182   0.000995  -0.032555   0.280494   0.000419
               7          8          9         10         11         12
     1  O   -0.037597  -0.013613   0.009455   0.001255  -0.006711   0.028142
     2  C    0.409330  -0.024991  -0.032814   0.010192  -0.036033  -0.007182
     3  C   -0.018552   0.432623   0.456893  -0.053074   0.047039   0.000995
     4  C   -0.010718  -0.032625  -0.033167   0.460315   0.339761  -0.032555
     5  O    0.000567  -0.018275   0.008320  -0.063806  -0.048176   0.280494
     6  H   -0.036875   0.006925  -0.012424   0.002592  -0.009090   0.000419
     7  H    0.621531  -0.008672   0.003717  -0.001504   0.005350  -0.000451
     8  H   -0.008672   0.608346  -0.042143  -0.000410   0.000590  -0.002227
     9  H    0.003717  -0.042143   0.621846  -0.005478   0.001271  -0.000569
    10  H   -0.001504  -0.000410  -0.005478   0.628615  -0.053385   0.012182
    11  H    0.005350   0.000590   0.001271  -0.053385   0.695318  -0.006995
    12  H   -0.000451  -0.002227  -0.000569   0.012182  -0.006995   0.466318
          Atomic-Atomic Spin Densities.
               1          2          3          4          5          6
     1  O    1.067443  -0.028430  -0.006516  -0.008295   0.006934  -0.031026
     2  C   -0.028430  -0.112858   0.013559   0.003611   0.000127   0.013182
     3  C   -0.006516   0.013559   0.041178  -0.050342   0.000926   0.020496
     4  C   -0.008295   0.003611  -0.050342   0.062677  -0.000143  -0.021747
     5  O    0.006934   0.000127   0.000926  -0.000143  -0.005675  -0.000385
     6  H   -0.031026   0.013182   0.020496  -0.021747  -0.000385   0.131859
     7  H   -0.004038  -0.004850   0.001833   0.009004   0.000336  -0.022793
     8  H    0.001273  -0.000662   0.002885  -0.002972  -0.000595   0.000533
     9  H   -0.000493   0.000463   0.001647  -0.000931   0.000313  -0.001139
    10  H   -0.000808  -0.001315   0.002722  -0.002580  -0.000042   0.001219
    11  H    0.001344   0.000125   0.002501  -0.003318  -0.000526   0.000392
    12  H   -0.008097   0.000015  -0.000285  -0.000991   0.002395   0.000551
               7          8          9         10         11         12
     1  O   -0.004038   0.001273  -0.000493  -0.000808   0.001344  -0.008097
     2  C   -0.004850  -0.000662   0.000463  -0.001315   0.000125   0.000015
     3  C    0.001833   0.002885   0.001647   0.002722   0.002501  -0.000285
     4  C    0.009004  -0.002972  -0.000931  -0.002580  -0.003318  -0.000991
     5  O    0.000336  -0.000595   0.000313  -0.000042  -0.000526   0.002395
     6  H   -0.022793   0.000533  -0.001139   0.001219   0.000392   0.000551
     7  H    0.050722  -0.001438   0.000014  -0.000353  -0.000118  -0.000313
     8  H   -0.001438  -0.000837   0.000292   0.000121  -0.000081   0.000503
     9  H    0.000014   0.000292  -0.004330   0.000104   0.000273  -0.000210
    10  H   -0.000353   0.000121   0.000104   0.001965  -0.000476  -0.000002
    11  H   -0.000118  -0.000081   0.000273  -0.000476   0.000810   0.000514
    12  H   -0.000313   0.000503  -0.000210  -0.000002   0.000514  -0.000740
 Mulliken charges and spin densities:
               1          2
     1  O   -0.160316   0.989291
     2  C   -0.058108  -0.117034
     3  C   -0.014421   0.030602
     4  C   -0.083131  -0.016026
     5  O   -0.362262   0.003663
     6  H    0.089806   0.091142
     7  H    0.073875   0.028006
     8  H    0.094471  -0.000979
     9  H    0.025092  -0.003997
    10  H    0.062505   0.000555
    11  H    0.071061   0.001438
    12  H    0.261428  -0.006662
 Sum of Mulliken charges =   0.00000   1.00000
 Mulliken charges and spin densities with hydrogens summed into heavy atoms:
               1          2
     1  O   -0.160316   0.989291
     2  C    0.105573   0.002114
     3  C    0.105142   0.025627
     4  C    0.050436  -0.014033
     5  O   -0.100834  -0.002998
 Electronic spatial extent (au):  <R**2>=            446.3628
 Charge=              0.0000 electrons
 Dipole moment (field-independent basis, Debye):
    X=              1.7645    Y=              2.5600    Z=              0.7482  Tot=              3.1980
 Quadrupole moment (field-independent basis, Debye-Ang):
   XX=            -35.0375   YY=            -31.6243   ZZ=            -30.2127
   XY=             -0.5845   XZ=             -0.7604   YZ=             -0.1818
 Traceless Quadrupole moment (field-independent basis, Debye-Ang):
   XX=             -2.7460   YY=              0.6672   ZZ=              2.0788
   XY=             -0.5845   XZ=             -0.7604   YZ=             -0.1818
 Octapole moment (field-independent basis, Debye-Ang**2):
  XXX=              7.3956  YYY=             -5.8600  ZZZ=              0.4388  XYY=             -1.2360
  XXY=              9.4893  XXZ=              1.3458  XZZ=              2.4011  YZZ=             -2.1990
  YYZ=             -0.0842  XYZ=              0.7905
 Hexadecapole moment (field-independent basis, Debye-Ang**3):
 XXXX=           -333.6514 YYYY=           -164.3556 ZZZZ=            -59.5132 XXXY=             -6.8459
 XXXZ=             -2.2294 YYYX=              2.3253 YYYZ=              2.2713 ZZZX=              1.4421
 ZZZY=              0.1197 XXYY=            -91.4071 XXZZ=            -63.7950 YYZZ=            -39.6212
 XXYZ=             -1.4564 YYXZ=              0.5053 ZZXY=             -1.2589
 N-N= 1.843214408006D+02 E-N=-9.977701497448D+02  KE= 2.672089056905D+02
 Leave Link  601 at Sat Aug  1 13:25:53 2020, MaxMem=  1879048192 cpu:         2.3
 (Enter /cm/shared/c3ddb/gaussian/09.d01/g09/l9999.exe)

 Test job not archived.
 1\1\GINC-NODE063\SP\UMP2-FC\CBSB3\C3H7O2(2)\XIAORUI\01-Aug-2020\0\\#P 
 Geom=AllCheck Guess=TCheck SCRF=Check Test MP2/CBSB3 CBSExtrap=(NMin=1
 0,MinPop)\\name\\0,2\O,0,1.8572292822,-1.1308311694,0.2770650289\C,0,1
 .3870198724,0.0975235374,-0.1089138586\C,0,0.0292909207,0.5058977904,0
 .4771138007\C,0,-0.0517573513,0.323273623,1.9950212357\O,0,-0.09718764
 41,-1.0410849001,2.3804640707\H,0,2.1748487049,0.7936322554,0.25983209
 86\H,0,1.4293017525,0.2021940369,-1.2067491226\H,0,-0.7583937379,-0.09
 4176931,0.0101413973\H,0,-0.1577828836,1.5533763387,0.2120281486\H,0,-
 0.9698385813,0.7792502872,2.3727731294\H,0,0.7913041455,0.8468808691,2
 .4758801806\H,0,0.65439852,-1.4698317376,1.9518298908\\Version=AS64L-G
 09RevD.01\State=2-A\HF=-267.4416474\MP2=-268.3777875\E2(CBS)=-1.032408
 9\CBS-Int=-1.0017274\OIii=8.2804665\PUHF=-267.4457104\PMP2-0=-268.3802
 851\S2=0.760534\S2-1=0.752377\S2A=0.750086\RMSD=4.681e-09\PG=C01 [X(C3
 H7O2)]\\@


 ALTHOUGH J.J. COULD DIAGNOSE THE FAULTS OF AN
 APPARATUS WITH UNCANNY ACCURACY, IT WAS JUST AS
 WELL NOT TO LET HIM HANDLE IT.
   -- GEORGE THOMPSON, ABOUT HIS FATHER
 Diagonal vibrational polarizability:
        0.0000000       0.0000000       0.0000000

 Complete Basis Set (CBS) Extrapolation:
 M. R. Nyden and G. A. Petersson, JCP 75, 1843 (1981)
 G. A. Petersson and M. A. Al-Laham, JCP 94, 6081 (1991)
 G. A. Petersson, T. Tensfeldt, and J. A. Montgomery, JCP 94, 6091 (1991)
 J. A. Montgomery, J. W. Ochterski, and G. A. Petersson, JCP 101, 5900 (1994)

 Temperature=               298.150000 Pressure=                       1.000000
 E(ZPE)=                      0.098708 E(Thermal)=                     0.104490
 E(SCF)=                   -267.441647 DE(MP2)=                       -0.936140
 DE(CBS)=                    -0.096269 DE(MP34)=                      -0.053900
 DE(CCSD)=                   -0.023879 DE(Int)=                        0.030681
 DE(Empirical)=              -0.048044
 CBS-QB3 (0 K)=            -268.470490 CBS-QB3 Energy=              -268.464708
 CBS-QB3 Enthalpy=         -268.463764 CBS-QB3 Free Energy=         -268.499992

 Test job not archived.
 1\1\GINC-NODE063\Mixed\CBS-QB3\CBS-QB3\C3H7O2(2)\XIAORUI\01-Aug-2020\0
 \\#P opt=(calcfc, noeigentest, tight) guess=mix cbs-qb3 scf=(tight, di
 rect) integral=(grid=ultrafine, Acc2E=12) scf=xqc iop(2/9=2000)\\name\
 \0,2\O,0,1.8572292822,-1.1308311694,0.2770650289\C,0,1.3870198724,0.09
 75235374,-0.1089138586\C,0,0.0292909207,0.5058977904,0.4771138007\C,0,
 -0.0517573513,0.323273623,1.9950212357\O,0,-0.0971876441,-1.0410849001
 ,2.3804640707\H,0,2.1748487049,0.7936322554,0.2598320986\H,0,1.4293017
 525,0.2021940369,-1.2067491226\H,0,-0.7583937379,-0.094176931,0.010141
 3973\H,0,-0.1577828836,1.5533763387,0.2120281486\H,0,-0.9698385813,0.7
 792502872,2.3727731294\H,0,0.7913041455,0.8468808691,2.4758801806\H,0,
 0.65439852,-1.4698317376,1.9518298908\\Version=AS64L-G09RevD.01\State=
 2-A\HF/CbsB3=-267.4416474\E2(CBS)/CbsB3=-1.0324089\CBS-Int/CbsB3=0.030
 6814\OIii/CbsB3=8.2804665\MP2/CbsB4=-268.1415383\MP4(SDQ)/CbsB4=-268.1
 954384\MP4(SDQ)/6-31+G(d')=-268.1304555\QCISD(T)/6-31+G(d')=-268.15433
 44\CBSQB3=-268.47049\FreqCoord=3.5096547093,-2.1369612127,0.5235770256
 ,2.6210876998,0.1842927772,-0.2058173649,0.0553518184,0.956008275,0.90
 16144175,-0.0978072193,0.6108986135,3.7700437647,-0.1836580308,-1.9673
 653423,4.4984251627,4.1098684327,1.499747613,0.491011507,2.7009888734,
 0.3820913555,-2.2804253528,-1.4331564656,-0.1779686077,0.0191644636,-0
 .2981664385,2.9354558614,0.4006751334,-1.8327293118,1.4725696317,4.483
 8913901,1.4953481229,1.6003729097,4.6787354791,1.2366339846,-2.7775794
 454,3.6884239515\PG=C01 [X(C3H7O2)]\NImag=0\\0.08723756,-0.09551582,0.
 27030724,0.01935957,-0.07952102,0.06761445,-0.08006725,0.08885844,-0.0
 2595618,0.44835778,0.05631584,-0.17143237,0.05285705,-0.00553484,0.380
 80444,-0.01696617,0.05892058,-0.04884952,0.03409540,-0.01931955,0.4475
 4876,-0.01048245,0.01396331,0.00182635,-0.14941878,0.01274228,0.027362
 27,0.49685890,0.04102474,-0.03154408,-0.00978550,0.00948387,-0.0632962
 1,0.00419296,0.03069155,0.58408952,-0.00572957,-0.00357913,0.00085517,
 0.01957511,0.00807782,-0.07188491,0.04397752,-0.00787307,0.45750403,0.
 00245467,-0.00129317,-0.00438735,-0.00280983,-0.00525847,0.04104332,-0
 .08486864,0.00173431,0.00112432,0.61283598,-0.00314362,-0.00040968,0.0
 0465284,-0.00325653,0.00220734,-0.01442585,0.00219176,-0.07606979,0.00
 076170,-0.02410295,0.49216362,-0.00187415,0.00312399,-0.00072892,0.011
 56581,-0.00301086,-0.01821354,0.00300966,-0.00599844,-0.17735365,-0.01
 647835,0.05347466,0.47172538,-0.00317163,-0.00048219,0.00977041,-0.000
 63314,0.00088573,-0.00768608,0.00390690,-0.00101380,0.00075436,-0.0870
 2570,0.01331561,0.01203928,0.38528542,-0.00026709,0.00400563,-0.000898
 43,0.00538427,-0.00227929,-0.00226091,-0.00181041,-0.02190077,0.014357
 48,-0.01739277,-0.21413589,0.04937480,-0.15326149,0.42297321,0.0063898
 5,0.00067964,-0.00260346,0.00039611,-0.00188750,-0.00142576,-0.0002914
 2,0.04419361,-0.00845939,0.01961617,0.02062190,-0.08231977,-0.20256505
 ,0.01722348,0.19861745,0.00706976,-0.00758551,0.00679083,-0.14120935,-
 0.08169657,-0.06207505,-0.02564584,-0.01668985,-0.00496760,0.00104488,
 -0.00019520,-0.00217411,0.00005130,-0.00035336,-0.00013626,0.16242424,
 -0.00909232,-0.04560997,0.00197212,-0.10158347,-0.10965046,-0.05726837
 ,0.00564486,0.00464416,0.00222400,0.00024746,0.00020329,0.00014514,-0.
 00046163,-0.00032999,-0.00012101,0.10581694,0.14681262,0.00657641,0.00
 365921,-0.00689143,-0.06017813,-0.04021103,-0.03607351,0.01105983,0.00
 389926,-0.00624459,0.00029411,0.00170853,0.00142803,0.00135565,-0.0000
 1174,0.00086205,0.05914171,0.05353021,0.06049218,0.00346958,-0.0007876
 5,-0.00508239,-0.04738137,0.00835058,-0.00768405,-0.00018435,-0.001693
 86,0.03623785,-0.00557280,0.00394250,-0.00058586,-0.00024512,-0.002036
 40,-0.00136485,-0.00205366,-0.00239648,-0.01489131,0.04812921,0.006701
 32,-0.02511925,0.03618119,0.00048192,-0.03238676,0.01810824,-0.0014282
 7,0.00112406,-0.01084656,0.00177126,-0.00020775,-0.00010740,0.00036894
 ,0.00072249,0.00042974,-0.00184971,0.00295792,-0.02223879,-0.00494792,
 0.05258382,-0.00789159,0.01965767,-0.01005817,0.01494972,0.00403569,-0
 .27162600,-0.00136119,-0.00048752,-0.01076847,0.00277842,-0.00180759,0
 .00085291,0.00008383,0.00069397,0.00013693,-0.00040977,-0.00015873,-0.
 01454533,-0.00843345,-0.02186910,0.30595052,0.00326793,-0.00205221,-0.
 00092094,-0.02549768,-0.01303372,-0.00683595,-0.17878155,-0.10126089,-
 0.07989722,0.00124969,0.00048510,-0.00007473,0.00065148,0.00114477,0.0
 0079700,-0.00397311,0.00149303,0.00051692,0.00169479,-0.00058254,0.000
 19257,0.19595036,-0.00099508,0.00211475,0.00006273,0.00894135,0.003325
 47,0.00358786,-0.10207295,-0.12663272,-0.06058584,0.00181256,0.0005914
 9,0.00203560,0.00069289,0.00164962,-0.00003067,0.00197875,0.00046588,0
 .00004627,-0.00090811,0.00029406,0.00037536,0.11092167,0.13389647,-0.0
 0139123,0.00200596,0.00066746,0.01135674,0.00502289,0.00224024,-0.0776
 2953,-0.05871758,-0.09110147,-0.02572093,-0.02127257,-0.01843520,0.001
 54571,-0.00013949,0.00493511,0.00274250,-0.00102121,0.00083292,-0.0010
 2806,0.00086122,0.00059949,0.08306680,0.06737945,0.10301804,-0.0065856
 2,0.00491884,0.00172733,-0.00578903,0.02685166,-0.00687952,-0.05323876
 ,0.03965844,-0.01049856,-0.00131267,-0.00218151,-0.00044864,0.00143619
 ,-0.00089736,0.00219335,0.00175031,0.00010460,-0.00173034,0.00167776,-
 0.00080868,0.00051326,0.00466968,-0.02149475,0.00631240,0.05781206,0.0
 0215702,-0.00023167,0.00004266,-0.00018477,-0.00763602,0.00047434,0.04
 095349,-0.27828062,0.05698731,0.00007044,-0.00363797,-0.00127010,0.000
 27171,0.00081725,0.00207670,-0.00008790,0.00042878,0.00085500,-0.00027
 809,0.00029105,-0.00045297,0.00335962,-0.01618813,0.00400715,-0.045640
 72,0.30312533,0.00266630,-0.00134756,0.00086021,0.00170990,-0.01115049
 ,0.00086184,-0.01059866,0.05571664,-0.06177687,-0.00483984,0.03169025,
 -0.00171018,-0.00014689,0.00333839,-0.00842390,-0.00055004,0.00000683,
 0.00103466,-0.00118601,0.00057292,-0.00010873,0.00349793,-0.01327535,0
 .00310582,0.00856843,-0.06328135,0.06479325,0.00007994,-0.00037092,0.0
 0049398,0.00134628,-0.00005031,-0.00113998,0.00033064,-0.00096485,-0.0
 0024722,-0.24137330,0.08714977,0.07666886,0.00524712,0.00289197,-0.001
 74188,0.00024527,0.00001276,0.00008176,-0.00017734,0.00045132,0.000060
 06,0.00063831,0.00004947,0.00034223,0.00029581,-0.00050883,0.00069414,
 0.25333246,0.00027008,0.00024027,-0.00032363,-0.00022984,0.00102109,0.
 00111569,-0.00317906,0.00178490,0.00043413,0.07754942,-0.08299941,-0.0
 3395235,0.03252436,-0.03064902,-0.01058895,0.00029988,-0.00001659,-0.0
 0008502,-0.00024503,0.00028363,0.00032678,0.00029540,-0.00011587,-0.00
 001913,-0.00028620,0.00061228,-0.00010307,-0.09559558,0.10856861,-0.00
 048625,-0.00029277,0.00096562,-0.00241503,0.00159280,-0.00694650,0.029
 75091,-0.01158761,-0.01250491,0.07690116,-0.03808589,-0.08222529,-0.00
 893399,0.00631519,0.00575039,-0.00000503,0.00021701,0.00005217,0.00205
 524,-0.00044880,-0.00087648,-0.00036138,-0.00048544,0.00101458,-0.0000
 5129,0.00039352,0.00131935,-0.08291019,0.03490000,0.08710829,0.0003586
 0,-0.00008582,0.00013287,0.00098004,0.00077048,-0.00014001,0.00070616,
 0.00061959,0.00162412,-0.19478239,-0.07328001,-0.08055064,0.00733796,-
 0.00737662,0.00314731,0.00053768,-0.00020026,-0.00029375,0.00005211,0.
 00011186,-0.00009290,0.00109643,0.00061800,0.00074133,0.00001803,0.000
 08473,-0.00080815,-0.02180247,-0.01085004,-0.01321226,0.20515602,0.000
 60101,0.00028119,-0.00002819,-0.00006305,-0.00042891,-0.00066057,0.001
 46607,0.00470627,0.00071575,-0.07142093,-0.08821280,-0.04611254,-0.025
 65797,-0.03690505,-0.00700274,0.00018526,-0.00006123,-0.00018431,-0.00
 007992,0.00016845,0.00010358,-0.00035682,0.00061060,0.00144175,0.00000
 135,0.00017414,-0.00138890,0.00826582,0.00753786,0.00520400,0.08926131
 ,0.11112255,0.00052035,-0.00060274,0.00067171,-0.00189293,-0.00009731,
 0.00066525,-0.02622239,-0.01487176,-0.01761707,-0.07971739,-0.04525727
 ,-0.09812666,0.00910984,0.00779791,0.00814997,0.00100632,0.00017309,0.
 00012223,-0.00014238,0.00055214,0.00041902,0.00057091,0.00087965,-0.00
 657240,0.00011017,0.00053288,0.00041527,0.00845250,0.00453297,0.006204
 04,0.08813614,0.04721985,0.10589955,-0.00363110,0.00043270,-0.00375451
 ,0.00212233,-0.00034266,0.00690583,0.00081779,-0.00158925,-0.00195310,
 0.00016010,-0.00092492,-0.00109712,-0.31284078,0.17397450,0.17355968,-
 0.00024149,0.00041450,-0.00193285,0.00059119,-0.00026951,-0.00038895,-
 0.00096635,0.00045621,-0.00033796,-0.00073375,-0.00019668,0.00099288,0
 .00183729,-0.00055339,-0.00033188,0.00034182,-0.00220212,0.00006886,0.
 31254294,0.00194393,-0.00260206,-0.00521182,-0.00229734,-0.00024832,0.
 00753557,0.00083738,0.00137528,-0.00067358,0.03628284,-0.02949245,-0.0
 1770249,0.13281785,-0.12396820,-0.06559421,0.00017727,0.00015559,-0.00
 096758,0.00108038,-0.00071173,-0.00041715,-0.00041342,-0.00001164,0.00
 045157,-0.00022567,0.00052557,-0.00077830,-0.00133062,-0.00626776,0.00
 227798,0.00032678,0.00100693,-0.00085941,-0.16919938,0.16023878,-0.001
 17352,-0.00270384,-0.00250312,-0.00320653,0.00409050,0.00370365,-0.000
 88334,0.00131902,-0.00064786,-0.01061364,0.00793928,0.00510690,0.18467
 293,-0.09579065,-0.11521961,0.00063649,0.00030091,-0.00106937,0.002105
 27,-0.00119480,0.00002432,-0.00055190,0.00001040,-0.00030458,0.0001834
 1,-0.00036515,-0.00037073,-0.00075425,0.00376257,0.00013874,0.00131595
 ,0.00069231,-0.00023088,-0.17173086,0.08193944,0.11137255\\0.00000015,
 -0.00000206,0.00000005,0.00000042,0.00000142,0.00000166,-0.00000096,0.
 00000029,-0.00000115,-0.00000100,0.00000009,0.00000013,0.00000129,0.00
 000094,-0.00000046,0.00000022,0.00000030,-0.00000058,0.00000062,-0.000
 00041,-0.00000022,0.00000018,-0.00000013,-0.00000022,0.,-0.00000017,0.
 00000033,-0.00000058,0.00000068,-0.00000005,0.00000029,-0.00000031,0.0
 0000020,-0.00000063,-0.00000064,0.00000030\\\@
 Job cpu time:       0 days  7 hours 50 minutes 11.9 seconds.
 File lengths (MBytes):  RWF=   2669 Int=      0 D2E=      0 Chk=      6 Scr=      1
 Normal termination of Gaussian 09 at Sat Aug  1 13:25:56 2020.
